    4
 0015.xyz Energy -0.0354338
   O     -0.816000      0.896000      0.000000
   H     -1.776000      0.813000      0.000000
   H     -0.645000      1.844000      0.000000
  Na      0.790867     -0.868289      0.000000
