    4
 0030.xyz Energy -1.4672e-05
   O     -0.265075      0.005476      0.285981
   H      0.400020     -0.668667      0.117689
   H     -0.134945      0.663192     -0.403670
  Na      0.000000      0.000000    101.279680
