    4
 0040.xyz Energy 1.18164e-05
   O      0.283190     -0.134552     -0.231904
   H      0.360844      0.524836      0.464028
   H     -0.644034     -0.390284     -0.232124
  Na      0.000000      0.000000    100.936363
