    4
 0047.xyz Energy 5.00525e-06
   O     -0.275240     -0.273896     -0.036108
   H      0.177812     -0.002268      0.767698
   H      0.097428      0.276165     -0.731590
  Na      0.000000      0.000000     68.841266
