    4
 0051.xyz Energy -0.00224053
   O      0.184764     -0.061148      0.337940
   H     -0.097568      0.781375     -0.030283
   H     -0.087196     -0.720227     -0.307657
  Na      0.000000      0.000000      9.365443
