    4
 0064.xyz Energy -0.000118444
   O      0.090560      0.179154      0.334339
   H      0.384356      0.410914     -0.551728
   H     -0.474915     -0.590068      0.217388
  Na      0.000000      0.000000     38.488755
