    4
 0079.xyz Energy -2.263e-05
   O     -0.061290      0.154795      0.352650
   H     -0.380099      0.482630     -0.493534
   H      0.441389     -0.637425      0.140884
  Na      0.000000      0.000000     90.398935
