    4
 0087.xyz Energy -4.20996e-05
   O      0.080683      0.001203      0.381535
   H     -0.787334     -0.003497     -0.032792
   H      0.706651      0.002294     -0.348743
  Na      0.000000      0.000000     69.133379
