    4
 0103.xyz Energy 8.77875e-06
   O     -0.060004      0.385330     -0.000480
   H      0.423268     -0.130613      0.651742
   H     -0.363264     -0.254717     -0.651262
  Na      0.000000      0.000000     28.298759
