    4
 0108.xyz Energy 4.4133e-07
   O     -0.060004      0.385330     -0.000480
   H      0.423268     -0.130613      0.651742
   H     -0.363264     -0.254717     -0.651262
  Na      0.000000      0.000000     79.364870
