    4
 0115.xyz Energy -4.68651e-05
   O      0.132664     -0.304844      0.203840
   H      0.650668      0.390237     -0.212906
   H     -0.783332     -0.085393      0.009066
  Na      0.000000      0.000000     48.523204
