    4
 0122.xyz Energy -9.26917e-05
   O      0.332528      0.155282      0.131883
   H     -0.526448      0.582806      0.064597
   H      0.193920     -0.738088     -0.196479
  Na      0.000000      0.000000     28.598533
