    4
 0132.xyz Energy 0.000196211
   O     -0.229893     -0.102807     -0.297759
   H      0.598878      0.383552     -0.339434
   H     -0.368985     -0.280745      0.637193
  Na      0.000000      0.000000     28.295725
