    4
 0135.xyz Energy 4.58066e-05
   O     -0.229893     -0.102807     -0.297759
   H      0.598878      0.383552     -0.339434
   H     -0.368985     -0.280745      0.637193
  Na      0.000000      0.000000     58.430058
