    4
 0141.xyz Energy -0.000445482
   O      0.254554     -0.066516      0.287850
   H     -0.496679     -0.610854      0.033906
   H      0.242125      0.677371     -0.321757
  Na      0.000000      0.000000     18.900282
