    4
 0170.xyz Energy -0.000188894
   O      0.366960      0.114331      0.065949
   H      0.033601     -0.372998     -0.693344
   H     -0.400561      0.258668      0.627395
  Na      0.000000      0.000000      9.046385
