    4
 0187.xyz Energy 2.44124e-05
   O      0.234995      0.089244     -0.298150
   H     -0.479796      0.621936      0.063039
   H      0.244802     -0.711181      0.235111
  Na      0.000000      0.000000     79.304521
