    4
 0197.xyz Energy -3.34626e-06
   O     -0.387873     -0.008620      0.039502
   H      0.164344     -0.627046     -0.448093
   H      0.223529      0.635666      0.408591
  Na      0.000000      0.000000     79.322886
