    4
 0205.xyz Energy -2.72989e-05
   O      0.169889      0.299027      0.183849
   H      0.342754     -0.012829     -0.709463
   H     -0.512643     -0.286198      0.525615
  Na      0.000000      0.000000     58.408981
