    4
 0209.xyz Energy -9.25577e-06
   O      0.169889      0.299027      0.183849
   H      0.342754     -0.012829     -0.709463
   H     -0.512643     -0.286198      0.525615
  Na      0.000000      0.000000    100.946314
