    4
 0214.xyz Energy -6.5599e-05
   O     -0.167724      0.193695      0.293992
   H      0.748203     -0.092722      0.229297
   H     -0.580479     -0.100973     -0.523289
  Na      0.000000      0.000000     48.529808
