    4
 0215.xyz Energy -4.47166e-05
   O     -0.167724      0.193695      0.293992
   H      0.748203     -0.092722      0.229297
   H     -0.580479     -0.100973     -0.523289
  Na      0.000000      0.000000     58.743030
