    4
 0324.xyz Energy 6.67117e-06
   O     -0.389937     -0.004909     -0.002348
   H      0.188460      0.162411      0.747722
   H      0.201477     -0.157502     -0.745375
  Na      0.000000      0.000000     38.196741
