    4
 0331.xyz Energy 0.00161069
   O      0.009409     -0.287308     -0.263525
   H      0.529039     -0.215795      0.542709
   H     -0.538448      0.503103     -0.279184
  Na      0.000000      0.000000      9.030290
