    4
 0342.xyz Energy -0.000478187
   O      0.217367     -0.059169      0.318325
   H     -0.688354     -0.345359      0.166971
   H      0.470987      0.404527     -0.485296
  Na      0.000000      0.000000     18.902997
