    4
 0364.xyz Energy 7.62324e-05
   O     -0.274616     -0.175198     -0.214411
   H      0.679299     -0.264853     -0.298980
   H     -0.404683      0.440051      0.513390
  Na      0.000000      0.000000     38.148910
