    4
 0398.xyz Energy 4.25111e-05
   O      0.021074      0.014369     -0.389140
   H      0.242657      0.712005      0.234838
   H     -0.263730     -0.726375      0.154301
  Na      0.000000      0.000000     68.754388
