    4
 0403.xyz Energy 0.000152429
   O     -0.302531     -0.225535     -0.098435
   H      0.591093     -0.258145     -0.452717
   H     -0.288562      0.483680      0.551152
  Na      0.000000      0.000000     18.571238
