    4
 0413.xyz Energy -0.00202296
   O     -0.146805     -0.186137      0.309647
   H      0.779851     -0.021733      0.111098
   H     -0.633046      0.207870     -0.420745
  Na      0.000000      0.000000      9.362752
