    4
 0418.xyz Energy -4.74055e-05
   O     -0.146805     -0.186137      0.309647
   H      0.779851     -0.021733      0.111098
   H     -0.633046      0.207870     -0.420745
  Na      0.000000      0.000000     58.744419
