    4
 0424.xyz Energy -0.0233795
   O     -0.693000      0.698000      0.000000
   H     -1.648000      0.628000      0.000000
   H     -0.614000      1.653000      0.000000
  Na      0.651778     -0.657333      0.000000
