    4
 0437.xyz Energy -0.0302086
   O     -0.693000      0.698000      0.000000
   H     -1.648000      0.628000      0.000000
   H     -0.614000      1.653000      0.000000
  Na      1.211051     -1.220996      0.000000
