    9
 0001.xyz Energy -0.151504
   H     -0.082649     -1.014522      0.111708
   N      0.000000      0.000006     -0.000001
   H      0.876803      0.319471      0.421475
   H     -0.005248      0.235185     -0.996600
   H     -0.788912      0.459789      0.463425
   O     -0.847952      0.272962      4.682888
   O      0.571604     -0.315859      2.981394
   C      0.270418      0.041974      4.151081
   H      1.164298      0.180761      4.848951
