    9
 0003.xyz Energy -0.143334
   H      0.769602      0.283200     -0.613249
   N     -0.000004     -0.000002      0.000003
   H     -0.644625      0.785880      0.123851
   H     -0.499736     -0.788260     -0.421261
   H      0.374817     -0.280798      0.910613
   O      1.093109     -0.387937      3.885457
   O     -1.117585      0.154495      3.610634
   C      0.023944      0.228431      4.138242
   H      0.103201      0.983553      4.991949
