    9
 0005.xyz Energy -0.156183
   H      0.050183      0.734169     -0.712068
   N     -0.000000     -0.000004      0.000004
   H     -0.159109     -0.904452     -0.452921
   H      0.880406     -0.029878      0.522058
   H     -0.771476      0.200216      0.642877
   O      0.396731     -0.691398      2.837393
   O     -0.695964      0.518614      4.449478
   C      0.292805      0.169077      3.751563
   H      1.260808      0.727954      3.988061
