    9
 0010.xyz Energy -0.147415
   H     -0.242622     -0.319734      0.942056
   N      0.000001      0.000002     -0.000005
   H      0.788631     -0.548760     -0.354133
   H     -0.806012     -0.121449     -0.619796
   H      0.259985      0.989919      0.031945
   O      0.920177     -0.406349      4.317553
   O     -0.711636      0.690349      3.137990
   C     -0.204067     -0.277897      3.763928
   H     -0.878595     -1.196620      3.843086
