    9
 0012.xyz Energy -0.140863
   H      0.198637     -0.134920     -0.995442
   N     -0.000001      0.000001      0.000005
   H     -0.048971      1.001922      0.205525
   H     -0.894908     -0.440207      0.232185
   H      0.745257     -0.426805      0.557657
   O     -0.228165      0.068044      3.204780
   O      0.559732     -0.051984      5.354604
   C     -0.324445     -0.015715      4.458032
   H     -1.397030     -0.067659      4.848121
