    9
 0014.xyz Energy -0.116663
   H      0.654900     -0.787172      0.005561
   N     -0.000004      0.000004     -0.000000
   H     -0.956092     -0.352166     -0.101750
   H      0.081223      0.517778      0.879694
   H      0.220020      0.621501     -0.783505
   O     -0.796721      0.249221      5.845319
   O      0.506909     -0.281584      4.035422
   C      0.283593      0.031666      5.234976
   H      1.221030      0.136374      5.879610
