    9
 0016.xyz Energy -0.137431
   H      0.240316      0.814798      0.571767
   N     -0.000001     -0.000004     -0.000003
   H     -0.573368      0.297656     -0.794441
   H      0.857953     -0.440396     -0.344268
   H     -0.524882     -0.671996      0.566985
   O     -0.899624      0.586791      3.362089
   O      0.664661     -0.649610      4.494015
   C      0.229922      0.061466      3.549399
   H      0.989923      0.264717      2.720910
