    9
 0022.xyz Energy -0.130813
   H     -0.770772     -0.277256      0.614496
   N      0.000004      0.000002     -0.000003
   H      0.279158     -0.797488     -0.578420
   H     -0.304333      0.769347     -0.603356
   H      0.795888      0.305376      0.567327
   O     -0.954169     -0.543628      4.253421
   O      1.102755      0.335378      3.750088
   C     -0.145389      0.203781      3.641719
   H     -0.626113      0.877400      2.854033
