    9
 0025.xyz Energy -0.143263
   H      0.626774      0.084824     -0.805310
   N     -0.000003     -0.000000      0.000004
   H      0.413976      0.476334      0.806360
   H     -0.902636      0.428845     -0.223365
   H     -0.138066     -0.989996      0.222254
   O      0.085426     -0.388441      5.249601
   O      0.005639      0.690940      3.228338
   C     -0.089110     -0.296000      4.005447
   H     -0.383685     -1.274565      3.494622
