    9
 0031.xyz Energy -0.140246
   H      1.015566     -0.066843     -0.112789
   N     -0.000006      0.000000      0.000001
   H     -0.258944      0.972088      0.190998
   H     -0.460206     -0.313271     -0.859432
   H     -0.296339     -0.591978      0.781215
   O     -0.440666      0.272415      3.302206
   O      0.742928     -0.238353      5.198294
   C     -0.295768     -0.033331      4.515651
   H     -1.273572     -0.143494      5.096229
