    9
 0034.xyz Energy -0.127536
   H     -0.077336      0.989257     -0.252892
   N      0.000000     -0.000005      0.000001
   H      0.712683     -0.111807      0.726683
   H     -0.901767     -0.333784      0.352074
   H      0.266415     -0.543591     -0.825884
   O      0.093636     -0.992548      3.827130
   O      0.107313      1.107896      4.746304
   C     -0.196633     -0.112865      4.680844
   H     -0.846664     -0.486072      5.543099
