    9
 0037.xyz Energy -0.135973
   H     -0.186713     -0.978571      0.236858
   N      0.000001      0.000005     -0.000001
   H      1.010928      0.147644     -0.068654
   H     -0.439358      0.223751     -0.897470
   H     -0.384871      0.607102      0.729283
   O     -0.573545     -0.347869      5.106280
   O      0.776120      0.072029      3.301004
   C     -0.198221      0.269918      4.074585
   H     -0.853561      1.162192      3.792304
