    9
 0039.xyz Energy -0.111381
   H      0.476465      0.703346     -0.571708
   N     -0.000003     -0.000004      0.000003
   H     -1.001032      0.212085      0.037968
   H      0.137165     -0.926422     -0.414102
   H      0.387438      0.011045      0.947798
   O      0.066116      0.158417      4.192853
   O      0.252035     -0.301294      6.431386
   C     -0.311318      0.139807      5.394570
   H     -1.340481      0.602002      5.574861
