    9
 0042.xyz Energy -0.225095
   H     -0.523000      0.610000      0.777000
   N      0.177000      0.180000      0.120000
   H      0.530000     -0.574000      0.763000
   H     -0.299000     -0.234000     -0.671000
   H      0.921000      0.843000     -0.061000
   O      0.392000     -1.135000      2.211000
   O     -1.079000      0.520000      2.230000
   C     -0.481000     -0.436000      2.807000
   H     -0.729000     -0.669000      3.874000
