    9
 0043.xyz Energy -0.222812
   H     -0.523000      0.610000      0.777000
   N      0.177000      0.180000      0.120000
   H      0.530000     -0.574000      0.763000
   H     -0.299000     -0.234000     -0.671000
   H      0.921000      0.843000     -0.061000
   O      0.414240     -1.131400      2.152880
   O     -1.056760      0.523600      2.171880
   C     -0.458760     -0.432400      2.748880
   H     -0.706760     -0.665400      3.815880
