    9
 0044.xyz Energy -0.215512
   H     -0.523000      0.610000      0.777000
   N      0.177000      0.180000      0.120000
   H      0.530000     -0.574000      0.763000
   H     -0.299000     -0.234000     -0.671000
   H      0.921000      0.843000     -0.061000
   O      0.447600     -1.126000      2.065700
   O     -1.023400      0.529000      2.084700
   C     -0.425400     -0.427000      2.661700
   H     -0.673400     -0.660000      3.728700
