    2
 0000.xyz Energy 0.00533516
  Na    -45.906000     35.608000     -7.507000
  Na     32.213000    -23.759000      7.018000
