    2
 0003.xyz Energy 0.0941172
  Na      1.136000      1.630000      0.000000
  Na     -3.888933     -0.877511     -0.230433
