    2
 0005.xyz Energy 0.089953
  Na      1.136000      1.630000      0.000000
  Na     -4.121778     -0.993704     -0.241111
