    2
 0007.xyz Energy 0.0916536
  Na      1.136000      1.630000      0.000000
  Na     -4.024133     -0.944978     -0.236633
