    2
 0008.xyz Energy 0.0948252
  Na      1.136000      1.630000      0.000000
  Na     -3.851378     -0.858770     -0.228711
