    2
 0012.xyz Energy 0.0955409
  Na      1.136000      1.630000      0.000000
  Na     -3.813976     -0.840106     -0.226996
