    2
 0015.xyz Energy 0.0969991
  Na      1.136000      1.630000      0.000000
  Na     -3.739478     -0.802931     -0.223580
