    2
 0019.xyz Energy 0.144461
  Na      1.136000      1.630000      0.000000
  Na     -2.133633     -0.001592     -0.149939
