    2
 0020.xyz Energy 0.181394
  Na      1.136000      1.630000      0.000000
  Na     -1.463151      0.332988     -0.119192
