    2
 0022.xyz Energy 0.0989948
  Na      1.136000      1.630000      0.000000
  Na      5.913067      4.013822      0.219067
