    2
 0024.xyz Energy 0.062918
  Na      1.136000      1.630000      0.000000
  Na      8.654622      5.381896      0.344789
