    2
 0028.xyz Energy 0.0338087
  Na      1.136000      1.630000      0.000000
  Na     15.129200      8.612800      0.641700
