    2
 0029.xyz Energy 0.0299078
  Na      1.136000      1.630000      0.000000
  Na     16.954400      9.523600      0.725400
