    2
 0030.xyz Energy 0.026689
  Na      1.136000      1.630000      0.000000
  Na     18.862222     10.475630      0.812889
