    2
 0032.xyz Energy 0.0217119
  Na      1.136000      1.630000      0.000000
  Na     22.925733     12.503378      0.999233
