    2
 0033.xyz Energy 0.0197573
  Na      1.136000      1.630000      0.000000
  Na     25.081422     13.579096      1.098089
