    2
 0037.xyz Energy 0.014167
  Na      1.136000      1.630000      0.000000
  Na     34.530400     18.294267      1.531400
