    2
 0038.xyz Energy 0.0131551
  Na      1.136000      1.630000      0.000000
  Na     37.099200     19.576133      1.649200
