    2
 0040.xyz Energy 0.0114417
  Na      1.136000      1.630000      0.000000
  Na     42.484667     22.263556      1.896167
