    2
 0041.xyz Energy 0.010712
  Na      1.136000      1.630000      0.000000
  Na     45.301333     23.669111      2.025333
