    2
 0044.xyz Energy 0.00890773
  Na      1.136000      1.630000      0.000000
  Na     54.247067     28.133156      2.435567
