    2
 0045.xyz Energy 0.00840942
  Na      1.136000      1.630000      0.000000
  Na     57.394222     29.703630      2.579889
