    2
 0048.xyz Energy 0.007147
  Na      1.136000      1.630000      0.000000
  Na     67.331422     34.662430      3.035589
