    2
 0051.xyz Energy 0.00615404
  Na      1.136000      1.630000      0.000000
  Na     78.012222     39.992296      3.525389
