    2
 0052.xyz Energy 0.00586959
  Na      1.136000      1.630000      0.000000
  Na     81.737733     41.851378      3.696233
