    2
 0053.xyz Energy 0.00560478
  Na      1.136000      1.630000      0.000000
  Na     85.545867     43.751689      3.870867
