    2
 0054.xyz Energy 0.00535782
  Na      1.136000      1.630000      0.000000
  Na     89.436622     45.693230      4.049289
