    2
 0056.xyz Energy 0.00491123
  Na      1.136000      1.630000      0.000000
  Na     97.466000     49.700000      4.417500
