    2
 0057.xyz Energy 1.39217
  Na      1.136000      1.630000      0.000000
  Na      0.200637      1.163241     -0.042894
