    2
 0059.xyz Energy 0.624701
  Na      1.136000      1.630000      0.000000
  Na      2.294857      2.208286      0.053143
