    2
 0060.xyz Energy 0.198972
  Na      1.136000      1.630000      0.000000
  Na      3.503380      2.811355      0.108563
