    2
 0062.xyz Energy 0.0926018
  Na      1.136000      1.630000      0.000000
  Na      6.243249      4.178588      0.234208
