    2
 0063.xyz Energy 0.0712547
  Na      1.136000      1.630000      0.000000
  Na      7.774596      4.942751      0.304433
