    2
 0066.xyz Energy 0.039828
  Na      1.136000      1.630000      0.000000
  Na     13.014286      7.557429      0.544714
