    2
 0072.xyz Energy 0.0187268
  Na      1.136000      1.630000      0.000000
  Na     26.399086     14.236629      1.158514
