    2
 0074.xyz Energy 0.015468
  Na      1.136000      1.630000      0.000000
  Na     31.721551     16.892612      1.402592
