    2
 0075.xyz Energy 0.0141611
  Na      1.136000      1.630000      0.000000
  Na     34.544196     18.301151      1.532033
