    2
 0076.xyz Energy 0.0130192
  Na      1.136000      1.630000      0.000000
  Na     37.474449     19.763388      1.666408
