    2
 0077.xyz Energy 0.0120148
  Na      1.136000      1.630000      0.000000
  Na     40.512310     21.279322      1.805718
