    2
 0079.xyz Energy 0.0103353
  Na      1.136000      1.630000      0.000000
  Na     46.910857     24.472286      2.099143
