    2
 0080.xyz Energy 0.00962844
  Na      1.136000      1.630000      0.000000
  Na     50.271543     26.149314      2.253257
