    2
 0082.xyz Energy 0.00842117
  Na      1.136000      1.630000      0.000000
  Na     57.315739     29.664465      2.576290
