    2
 0083.xyz Energy 0.00790299
  Na      1.136000      1.630000      0.000000
  Na     60.999249     31.502588      2.745208
