    2
 0085.xyz Energy 0.00700336
  Na      1.136000      1.630000      0.000000
  Na     68.689094     35.339927      3.097849
