    2
 0087.xyz Energy 0.00625186
  Na      1.136000      1.630000      0.000000
  Na     76.809371     39.392057      3.470229
