    2
 0089.xyz Energy 0.00561715
  Na      1.136000      1.630000      0.000000
  Na     85.360082     43.658980      3.862347
