    2
 0090.xyz Energy 0.00533605
  Na      1.136000      1.630000      0.000000
  Na     89.796849     45.872988      4.065808
