    2
 0091.xyz Energy 0.00507588
  Na      1.136000      1.630000      0.000000
  Na     94.341224     48.140694      4.274204
