    2
 0092.xyz Energy 0.00483458
  Na      1.136000      1.630000      0.000000
  Na     98.993208     50.462098      4.487535
