    2
 0093.xyz Energy 0.00461035
  Na      1.136000      1.630000      0.000000
  Na    103.752800     52.837200      4.705800
