    5
 0000.xyz Energy 0.1267
   O      0.288951      0.267951     -1.090928
   O      0.057987     -0.220716      1.137254
   C     -0.339488     -0.046222     -0.045325
   H     -1.461755     -0.199001     -0.195263
  Br      0.000000      0.000000      4.180000
