    5
 0001.xyz Energy 0.118306
   O     -0.092110      0.292522      1.118642
   O     -0.092877      0.005996     -1.156184
   C      0.181015     -0.292109      0.036729
   H      0.779414     -1.257747      0.158255
  Br      0.000000      0.000000      4.420000
