    5
 0002.xyz Energy 0.119414
   O      0.010953     -0.986228      0.610450
   O      0.288096      1.038107     -0.429836
   C     -0.292626     -0.050759     -0.176738
   H     -1.260001     -0.218654     -0.760950
  Br      0.000000      0.000000      4.080000
