    5
 0003.xyz Energy 0.105832
   O     -0.063355      0.384792     -1.092399
   O      0.087205     -0.038198      1.156010
   C     -0.023337     -0.339153     -0.062239
   H     -0.100492     -1.460302     -0.268095
  Br      0.000000      0.000000      5.040000
