    5
 0004.xyz Energy 0.108498
   O      0.818179      0.435370      0.697460
   O     -1.003911     -0.423990     -0.397265
   C      0.181738     -0.011138     -0.293752
   H      0.782614     -0.047917     -1.264783
  Br      0.000000      0.000000      4.760000
