    5
 0005.xyz Energy 0.0956602
   O     -0.049468     -0.120566      1.152576
   O     -0.225816     -0.099868     -1.133339
   C      0.269373      0.215701     -0.018830
   H      1.159872      0.928761     -0.080972
  Br      0.000000      0.000000      5.600000
