    5
 0006.xyz Energy 0.0914861
   O      0.122102     -0.127142     -1.146446
   O     -0.435334     -0.019548      1.074954
   C      0.306503      0.143540      0.069964
   H      1.319767      0.618049      0.301144
  Br      0.000000      0.000000      5.780000
