    5
 0007.xyz Energy 0.128326
   O     -0.389475      0.551985     -0.942887
   O      0.678281     -0.362922      0.868128
   C     -0.282602     -0.185005      0.073159
   H     -1.216875     -0.796552      0.314923
  Br      0.000000      0.000000      3.820000
