    5
 0008.xyz Energy 0.11845
   O     -0.560285      0.251332      0.984036
   O      0.388785      0.037870     -1.092170
   C      0.167820     -0.282992      0.105806
   H      0.722554     -1.218495      0.455678
  Br      0.000000      0.000000      4.260000
