    5
 0009.xyz Energy 0.114378
   O     -0.825878     -0.101005     -0.808169
   O      0.687497     -0.207266      0.910941
   C      0.135414      0.301651     -0.100560
   H      0.582996      1.298854     -0.433072
  Br      0.000000      0.000000      4.440000
