    5
 0010.xyz Energy 0.111763
   O     -0.601418     -0.791976      0.597062
   O      0.659436      0.512426     -0.804977
   C     -0.056768      0.273551      0.203446
   H     -0.244490      1.177793      0.876062
  Br      0.000000      0.000000      4.180000
