    5
 0011.xyz Energy 0.0961075
   O      0.023469     -0.961168     -0.648860
   O      0.122361      1.096763      0.357157
   C     -0.142698     -0.132678      0.285441
   H     -0.614434     -0.571380      1.229005
  Br      0.000000      0.000000      4.900000
