    5
 0012.xyz Energy 0.0869808
   O     -1.133460     -0.104688     -0.222983
   O      1.154444     -0.003541     -0.112560
   C     -0.020527      0.105905      0.328338
   H     -0.088491      0.456002      1.413750
  Br      0.000000      0.000000      5.420000
