    5
 0013.xyz Energy 0.0978227
   O     -0.683909      0.156284     -0.923719
   O      0.919984     -0.008713      0.706384
   C     -0.231000     -0.144402      0.212673
   H     -0.994715     -0.621760      0.915650
  Br      0.000000      0.000000      5.040000
