    5
 0014.xyz Energy 0.137347
   O     -0.910294      0.610655      0.379315
   O      0.670035     -0.869495     -0.374774
   C      0.235104      0.253277     -0.004446
   H      1.012234      1.090630     -0.019108
  Br      0.000000      0.000000      3.220000
