    5
 0015.xyz Energy 0.118876
   O     -0.171643     -0.572219      0.994242
   O      0.345853      0.275102     -1.072440
   C     -0.170468      0.290739      0.076513
   H     -0.734024      1.251825      0.329546
  Br      0.000000      0.000000      4.260000
