    5
 0016.xyz Energy 0.111427
   O      0.046987     -0.167854     -1.146748
   O      0.042731     -0.173750      1.146041
   C     -0.087792      0.334268      0.000699
   H     -0.378014      1.439290      0.002902
  Br      0.000000      0.000000      4.740000
