    5
 0017.xyz Energy 0.113379
   O     -0.492182      0.939934     -0.468715
   O      0.774750     -0.808499      0.302516
   C     -0.276497     -0.128618      0.162633
   H     -1.190600     -0.553723      0.700228
  Br      0.000000      0.000000      3.960000
