    5
 0018.xyz Energy 0.103109
   O      0.551865     -0.033751      1.019666
   O     -0.766883      0.244617     -0.835151
   C      0.210397     -0.206336     -0.180559
   H      0.905988     -0.888455     -0.777361
  Br      0.000000      0.000000      5.140000
