    5
 0019.xyz Energy 0.0956968
   O     -0.155699     -0.042651     -1.148631
   O     -0.196373      0.069683      1.141055
   C      0.344512     -0.026452      0.007420
   H      1.483398     -0.113901      0.031841
  Br      0.000000      0.000000      5.580000
