    5
 0020.xyz Energy 0.0958106
   O     -0.925956      0.369261     -0.593014
   O      0.678493     -0.563952      0.753014
   C      0.242154      0.190508     -0.156560
   H      1.042591      0.820331     -0.674180
  Br      0.000000      0.000000      5.400000
