    5
 0021.xyz Energy 0.133139
   O      0.053134      0.905176      0.723357
   O      0.275995     -0.951166     -0.603767
   C     -0.322061      0.044997     -0.117027
   H     -1.386738      0.193833     -0.503830
  Br      0.000000      0.000000      3.620000
