    5
 0022.xyz Energy 0.120649
   O     -0.531795      0.529333     -0.884542
   O      0.816738     -0.441848      0.695077
   C     -0.278820     -0.085609      0.185400
   H     -1.200606     -0.368569      0.798222
  Br      0.000000      0.000000      3.880000
