    5
 0023.xyz Energy 0.114272
   O      0.814044      0.101430     -0.820036
   O     -0.539169     -0.021152      1.026778
   C     -0.268976     -0.078554     -0.202297
   H     -1.158091     -0.338233     -0.871138
  Br      0.000000      0.000000      4.600000
