    5
 0024.xyz Energy 0.105447
   O     -0.159205      0.018914      1.148786
   O     -0.105431     -0.251832     -1.127337
   C      0.258953      0.227916     -0.020995
   H      1.114996      0.981371     -0.090294
  Br      0.000000      0.000000      5.040000
