    5
 0025.xyz Energy 0.100544
   O     -0.001267     -0.425900      1.078898
   O      0.053475      0.085107     -1.155561
   C     -0.051087      0.333477      0.075010
   H     -0.219971      1.435858      0.323083
  Br      0.000000      0.000000      5.220000
