    5
 0026.xyz Energy 0.0988371
   O     -0.037728     -1.125967     -0.276022
   O      0.325926      1.110834      0.072414
   C     -0.282008      0.014815      0.199236
   H     -1.214284      0.063684      0.857855
  Br      0.000000      0.000000      4.700000
