    5
 0027.xyz Energy 0.0958129
   O      1.034426      0.520605     -0.065937
   O     -1.128290     -0.238438     -0.124626
   C      0.091843     -0.276110      0.186471
   H      0.395558     -1.188836      0.802907
  Br      0.000000      0.000000      4.900000
