    5
 0028.xyz Energy 0.126697
   O      0.334341      0.148382     -1.100733
   O     -0.011356     -0.289523      1.123153
   C     -0.316051      0.138109     -0.021932
   H     -1.360833      0.594688     -0.094539
  Br      0.000000      0.000000      4.160000
