    5
 0029.xyz Energy 0.119664
   O      0.348199     -0.522727     -0.975155
   O     -0.199531      0.235960      1.118004
   C     -0.145476      0.280611     -0.139775
   H     -0.626366      1.208217     -0.601942
  Br      0.000000      0.000000      4.420000
