    5
 0030.xyz Energy 0.111525
   O      0.047471      0.273929     -1.126110
   O      0.301684     -0.229926      1.096150
   C     -0.341656     -0.043060      0.029323
   H     -1.471114     -0.185384      0.126153
  Br      0.000000      0.000000      4.680000
