    5
 0031.xyz Energy 0.117459
   O     -1.042183     -0.469393     -0.197326
   O      0.881004      0.569103      0.495356
   C      0.157724     -0.097566     -0.291628
   H      0.679036     -0.420147     -1.255724
  Br      0.000000      0.000000      4.240000
