    5
 0032.xyz Energy 0.103947
   O     -0.678922      0.392027      0.854864
   O      0.555586     -0.701620     -0.737888
   C      0.120692      0.302941     -0.114469
   H      0.519615      1.304453     -0.492807
  Br      0.000000      0.000000      4.940000
