    5
 0033.xyz Energy 0.0946852
   O     -0.956969      0.193075     -0.626375
   O      1.102187     -0.010425      0.361245
   C     -0.142094     -0.178728      0.259439
   H     -0.611923     -0.769557      1.117045
  Br      0.000000      0.000000      5.020000
