    5
 0034.xyz Energy 0.0914758
   O      0.401454      0.333354      1.035917
   O     -0.114422     -0.157860     -1.143421
   C     -0.280870     -0.171727      0.105190
   H     -1.209346     -0.739396      0.453027
  Br      0.000000      0.000000      5.740000
