   22
 0000.xyz Energy 0.0747075
   N     -0.235416     -0.327135     -1.180040
   C     -0.391893     -0.266381      0.315896
   H     -0.956267     -0.938937     -1.598489
   H      0.693620     -0.701633     -1.435702
   H     -0.330179      0.614426     -1.596239
   H     -0.313433     -1.293854      0.684289
   H     -1.401961      0.105841      0.512806
   C      0.635900      0.621623      1.040091
   H      1.652206      0.260934      0.863662
   H      0.451921      0.610693      2.117260
   H      0.567915      1.655429      0.692624
   N     -0.155028      1.168494      6.306842
   C     -0.239165     -0.017365      5.383447
   H     -0.603285      1.996714      5.880057
   H      0.830697      1.404198      6.510580
   H     -0.631570      0.969272      7.202362
   H      0.253134      0.272718      4.450139
   H     -1.301795     -0.189325      5.186452
   C      0.400969     -1.308113      5.925265
   H      1.465991     -1.160259      6.120118
   H      0.296079     -2.116165      5.197040
   H     -0.082994     -1.620473      6.853877
