   22
 0004.xyz Energy 0.115474
   N      0.229808      0.670183      1.026145
   C      0.289497      0.254288     -0.419354
   H      0.802981      1.515475      1.187339
   H      0.586056     -0.082785      1.638390
   H     -0.742663      0.881583      1.306055
   H      1.343672      0.078776     -0.654895
   H     -0.069546      1.104399     -1.007538
   C     -0.533072     -0.999124     -0.768219
   H     -0.183846     -1.863059     -0.197468
   H     -0.435873     -1.230642     -1.831804
   H     -1.591829     -0.841354     -0.548551
   N     -0.316016      0.424299      4.870825
   C      0.256938     -0.500443      5.911294
   H     -0.186717      0.032738      3.922674
   H      0.149432      1.346739      4.905194
   H     -1.328147      0.566884      5.025739
   H      1.316050     -0.631776      5.669212
   H     -0.255670     -1.460515      5.797031
   C      0.116276     -0.009664      7.363437
   H      0.630003      0.944885      7.501356
   H      0.555171     -0.736173      8.051781
   H     -0.935908      0.119491      7.628650
