   22
 0015.xyz Energy 0.0856088
   N     -0.355595     -0.753421      0.927814
   C     -0.437086      0.013677     -0.364826
   H     -1.227351     -1.284058      1.093627
   H     -0.211797     -0.111733      1.725484
   H      0.431051     -1.423842      0.906302
   H     -1.304580      0.676056     -0.285600
   H     -0.620686     -0.719652     -1.156078
   C      0.814645      0.841142     -0.708100
   H      1.010566      1.586868      0.066243
   H      0.673232      1.363730     -1.657398
   H      1.692023      0.196367     -0.800751
   N     -0.412221      0.016514      7.156747
   C     -0.383185     -0.301446      5.685673
   H     -1.249769     -0.393830      7.603020
   H     -0.433254      1.038714      7.309662
   H      0.424544     -0.364016      7.629779
   H     -1.306885      0.099276      5.256989
   H     -0.394467     -1.392214      5.598161
   C      0.828068      0.265177      4.923327
   H      0.852742      1.355577      4.990544
   H      0.772367     -0.010618      3.867346
   H      1.761836     -0.130173      5.330621
