   22
 0016.xyz Energy 0.0910506
   N      1.012543     -0.545714      0.481544
   C      0.119045      0.556514     -0.021203
   H      1.918070     -0.164223      0.803278
   H      1.199995     -1.234391     -0.266323
   H      0.571304     -1.041330      1.274268
   H      0.658213      1.055959     -0.832019
   H     -0.010078      1.260559      0.806569
   C     -1.259795      0.094498     -0.525889
   H     -1.153262     -0.603248     -1.360096
   H     -1.842634      0.952269     -0.870549
   H     -1.819008     -0.399668      0.272354
   N      0.436524      0.490215      6.200220
   C      0.451222     -0.226614      4.876612
   H      1.387187      0.530499      6.604753
   H     -0.179937      0.003936      6.872699
   H      0.092379      1.458561      6.087934
   H      0.853916     -1.226962      5.062925
   H      1.143293      0.320390      4.229013
   C     -0.919709     -0.342285      4.186297
   H     -1.624054     -0.894216      4.813489
   H     -0.820468     -0.872797      3.236050
   H     -1.335910      0.647420      3.982894
