   22
 0018.xyz Energy 0.107361
   N     -0.279358     -1.215226      0.010773
   C      0.437641      0.055324     -0.360192
   H      0.129991     -2.024404     -0.485909
   H     -1.280812     -1.156323     -0.238905
   H     -0.209332     -1.391355      1.027047
   H      0.351630      0.161804     -1.445934
   H      1.490617     -0.088686     -0.099305
   C     -0.095492      1.325352      0.326950
   H     -1.144711      1.492748      0.071573
   H      0.477790      2.198105      0.004595
   H     -0.010204      1.243098      1.413261
   N     -0.293063      0.806106      4.034882
   C     -0.228832      0.211944      5.416492
   H     -0.827396      1.691242      4.042039
   H     -0.755475      0.155385      3.378030
   H      0.656474      1.005334      3.677914
   H     -1.261876      0.057811      5.743042
   H      0.239777      0.961846      6.061172
   C      0.547642     -1.113313      5.517231
   H      0.089734     -1.879606      4.886981
   H      0.546527     -1.474175      6.548753
   H      1.585790     -0.979005      5.203668
