   22
 0019.xyz Energy 0.0813889
   N     -0.350713      1.178589     -0.207026
   C     -0.392218     -0.219330      0.349840
   H     -1.156036      1.731284      0.132107
   H     -0.383038      1.161847     -1.240173
   H      0.516543      1.661641      0.081532
   H     -1.344351     -0.657306      0.034896
   H     -0.387466     -0.125119      1.440098
   C      0.766856     -1.129388     -0.094803
   H      0.774426     -1.244255     -1.181472
   H      0.661532     -2.120855      0.352592
   H      1.727827     -0.713910      0.218284
   N     -0.448709     -0.522278      6.359624
   C      0.396714      0.370844      5.491527
   H     -0.220389     -0.383744      7.358477
   H     -0.288385     -1.516693      6.126916
   H     -1.453181     -0.317019      6.226796
   H      1.441068      0.123618      5.705473
   H      0.201807      1.398898      5.811961
   C      0.135052      0.242754      3.980073
   H      0.333091     -0.775823      3.637463
   H      0.786522      0.922361      3.425111
   H     -0.901678      0.494471      3.743555
