   22
 0021.xyz Energy 0.0878575
   N      0.715874      0.387079     -0.944789
   C     -0.302598     -0.437308     -0.203776
   H      0.814204      0.056914     -1.919648
   H      1.640873      0.323104     -0.487622
   H      0.434689      1.381636     -0.967803
   H      0.039495     -1.475934     -0.246185
   H     -1.242690     -0.349672     -0.757045
   C     -0.526459     -0.026965      1.262809
   H      0.399651     -0.116343      1.835899
   H     -1.277617     -0.672227      1.725044
   H     -0.877536      1.005865      1.326977
   N     -0.968590      0.721043      4.788776
   C      0.404980      0.355421      5.284381
   H     -1.107914      1.745078      4.819918
   H     -1.697913      0.278298      5.372544
   H     -1.100864      0.406977      3.812762
   H      0.487184      0.743681      6.304217
   H      1.121377      0.880504      4.645144
   C      0.716512     -1.151990      5.279172
   H      0.017043     -1.694466      5.919924
   H      1.728562     -1.329735      5.651226
   H      0.648625     -1.558245      4.267016
