   22
 0024.xyz Energy 0.083761
   N      0.389535     -0.322349     -1.139862
   C      0.146707     -0.431294      0.341747
   H      0.879199     -1.161814     -1.492787
   H      0.970996      0.504806     -1.355350
   H     -0.504287     -0.231343     -1.651269
   H      1.125644     -0.556842      0.814495
   H     -0.443251     -1.339464      0.499030
   C     -0.579655      0.771537      0.970209
   H     -0.001715      1.688604      0.832103
   H     -0.715948      0.612124      2.042717
   H     -1.564722      0.909075      0.517620
   N      0.242757      1.218144      5.249886
   C     -0.556873     -0.057222      5.255375
   H     -0.360294      2.026790      5.023060
   H      0.999232      1.172525      4.546762
   H      0.671476      1.385030      6.175676
   H     -1.005565     -0.153711      4.261929
   H     -1.353532      0.072825      5.994281
   C      0.249242     -1.326871      5.583304
   H      1.045410     -1.480390      4.850740
   H     -0.403376     -2.203275      5.566967
   H      0.698982     -1.254603      6.576592
