   22
 0026.xyz Energy 0.0936651
   N     -0.928521      0.566309     -0.609978
   C      0.480231      0.236210     -0.194709
   H     -0.933214      1.310361     -1.327887
   H     -1.480828      0.895532      0.199521
   H     -1.397976     -0.265867     -1.004735
   H      0.924868      1.162964      0.180784
   H      1.012177     -0.072131     -1.099982
   C      0.600241     -0.864315      0.874782
   H      0.082735     -0.571724      1.791666
   H      1.650835     -1.042006      1.117559
   H      0.169469     -1.802213      0.515762
   N      0.612077      0.283649      4.531269
   C      0.240803      0.313725      5.989779
   H      1.396087      0.930056      4.340180
   H     -0.190040      0.566759      3.943752
   H      0.901346     -0.667279      4.247022
   H     -0.021630      1.349017      6.228255
   H      1.139061      0.036489      6.549987
   C     -0.920565     -0.616918      6.382836
   H     -1.831112     -0.350609      5.840543
   H     -1.124430     -0.534984      7.453344
   H     -0.674848     -1.658287      6.160834
