   22
 0028.xyz Energy 0.0990717
   N      0.593726     -1.079026     -0.195254
   C     -0.078200      0.034290      0.563061
   H      0.917290     -1.818325      0.451098
   H      1.413353     -0.724262     -0.715901
   H     -0.059645     -1.506281     -0.872969
   H      0.655100      0.416582      1.279786
   H     -0.911082     -0.415539      1.112170
   C     -0.599312      1.190788     -0.308903
   H      0.219491      1.660392     -0.859480
   H     -1.071139      1.952515      0.316727
   H     -1.340714      0.831322     -1.026690
   N      0.443098      0.264071      4.544720
   C     -0.440270     -0.351507      5.596729
   H      0.149539     -0.035625      3.599715
   H      1.427622     -0.019837      4.681932
   H      0.395526      1.295979      4.585234
   H     -0.367168     -1.436699      5.475957
   H     -1.464203     -0.036946      5.372737
   C     -0.087631      0.031659      7.045244
   H      0.929366     -0.282446      7.292540
   H     -0.774277     -0.454900      7.742409
   H     -0.163334      1.112179      7.189663
