   22
 0029.xyz Energy 0.0761231
   N      0.220971      1.082819     -0.577587
   C      0.499053     -0.274108      0.011837
   H      1.081332      1.488827     -0.982515
   H     -0.131758      1.730838      0.146549
   H     -0.488592      1.017796     -1.326606
   H      1.276564     -0.136704      0.769574
   H      0.896728     -0.894322     -0.797329
   C     -0.720410     -0.969226      0.643571
   H     -1.127706     -0.369634      1.461312
   H     -0.433282     -1.944167      1.045205
   H     -1.506284     -1.124217     -0.099726
   N      0.266455     -0.460724      6.687682
   C     -0.163999      0.538354      5.647224
   H      0.231024     -0.042701      7.632685
   H      1.234334     -0.778329      6.511452
   H     -0.352404     -1.288766      6.677770
   H      0.509190      1.396655      5.735013
   H     -1.178007      0.853155      5.912265
   C     -0.147557      0.015277      4.199645
   H      0.859479     -0.296143      3.911553
   H     -0.472572      0.799220      3.511124
   H     -0.821276     -0.837829      4.088181
