    8
 0000.xyz Energy 0.124712
   C      1.234109      0.769089      0.047973
   C     -0.096701     -0.060274     -0.009871
   O     -0.613294     -0.240908     -1.179197
   O     -0.533641     -0.473622      1.135198
   H      1.553666      1.073157     -0.956274
   H      1.079417      1.658945      0.676234
   H      2.019369      0.163708      0.524443
  Br      0.000000      0.000000      4.100000
