    8
 0003.xyz Energy 0.104932
   C     -1.347587     -0.520591     -0.172682
   C      0.105600      0.043213      0.007919
   O      0.646618      0.586537     -1.030792
   O      0.605739     -0.103161      1.191723
   H     -1.713506     -0.349343     -1.192419
   H     -1.348103     -1.598378      0.048362
   H     -2.018093     -0.036684      0.552851
  Br      0.000000      0.000000      5.020000
