    8
 0005.xyz Energy 0.097618
   C      0.300236      1.382789      0.338490
   C     -0.021806     -0.110297     -0.020990
   O      0.305901     -0.998423      0.856882
   O     -0.584883     -0.286412     -1.172026
   H      0.760841      1.459303      1.331000
   H      0.977935      1.800242     -0.421078
   H     -0.628141      1.972195      0.309153
  Br      0.000000      0.000000      5.000000
