    8
 0007.xyz Energy 0.124269
   C      0.616637     -1.306590      0.171481
   C     -0.045917      0.104431     -0.008203
   O      0.082036      0.931078      0.975211
   O     -0.655451      0.282851     -1.134964
   H      1.127001     -1.382636      1.139382
   H     -0.158962     -2.083276      0.096047
   H      1.333330     -1.478388     -0.645208
  Br      0.000000      0.000000      3.880000
