    8
 0013.xyz Energy 0.0966306
   C      0.485445     -1.355940      0.206379
   C     -0.041535      0.104502     -0.020871
   O     -0.786052      0.294033     -1.058461
   O      0.335420      0.966214      0.867000
   H      0.116006     -2.034488     -0.572193
   H      1.585638     -1.348547      0.204217
   H      0.161798     -1.709284      1.196604
  Br      0.000000      0.000000      5.120000
