    8
 0014.xyz Energy 0.125509
   C      1.311781      0.255533     -0.575115
   C     -0.100693     -0.019171      0.050743
   O     -0.160349     -0.070745      1.339386
   O     -1.058818     -0.166990     -0.805472
   H      2.071025      0.385385      0.205766
   H      1.588134     -0.585202     -1.228780
   H      1.261879      1.156983     -1.203638
  Br      0.000000      0.000000      4.380000
