    8
 0018.xyz Energy 0.0785256
   C     -0.469676      0.363255      1.328260
   C      0.041597     -0.024698     -0.103640
   O      1.050741      0.641617     -0.555827
   O     -0.614844     -0.979394     -0.678616
   H      0.139975      1.165819      1.761045
   H     -1.519659      0.685396      1.263092
   H     -0.438507     -0.523774      1.978147
  Br      0.000000      0.000000      5.680000
