    8
 0021.xyz Energy 0.132517
   C      1.169533     -0.773879     -0.387464
   C     -0.095437      0.056234      0.028478
   O     -1.242681     -0.439820     -0.294913
   O      0.156215      1.159470      0.654974
   H      0.882696     -1.700825     -0.898915
   H      1.802500     -0.163039     -1.048305
   H      1.761842     -1.007986      0.509480
  Br      0.000000      0.000000      3.460000
