    8
 0023.xyz Energy 0.115702
   C      0.778788     -1.149601     -0.434433
   C     -0.066153      0.087770      0.031650
   O     -1.294045      0.130038     -0.364978
   O      0.570861      0.938571      0.768743
   H      0.173828     -1.834915     -1.040613
   H      1.643351     -0.799001     -1.017610
   H      1.170488     -1.675821      0.448634
  Br      0.000000      0.000000      4.200000
