    8
 0028.xyz Energy 0.133841
   C     -1.096189     -0.913247      0.284909
   C      0.086424      0.073092     -0.016431
   O      0.508286      0.787057      0.973066
   O      0.510199      0.061605     -1.238413
   H     -1.393627     -0.862390      1.339438
   H     -1.952501     -0.659156     -0.357471
   H     -0.788380     -1.938350      0.030818
  Br      0.000000      0.000000      3.640000
