    8
 0031.xyz Energy 0.0803177
   C      0.154162      0.890960      1.139846
   C     -0.006030     -0.070187     -0.090105
   O      1.073377     -0.371025     -0.731350
   O     -1.217219     -0.456733     -0.327930
   H      1.205144      1.165513      1.291980
   H     -0.448122      1.796428      0.972916
   H     -0.238911      0.397104      2.040814
  Br      0.000000      0.000000      5.520000
