   12
 0006.xyz Energy -0.136768
   N      0.027004      0.389966      0.566191
   C     -0.030924     -0.446391     -0.648112
   H     -0.785629      0.224352      1.174417
   H      0.038802      1.391262      0.331361
   H      0.872074      0.191548      1.117921
   H     -0.944943     -0.189873     -1.186958
   H     -0.040876     -1.491707     -0.333506
   H      0.853815     -0.225452     -1.248276
   O     -0.666720      0.247540      3.823691
   O      0.808020      0.064349      5.569691
   C     -0.138261     -0.305192      4.824763
   H     -0.595393     -1.314085      5.104890
