   12
 0007.xyz Energy -0.106352
   N      0.031769     -0.094204     -0.680802
   C     -0.036375      0.107825      0.779309
   H     -0.834339     -0.515348     -1.041680
   H      0.808946     -0.717276     -0.937037
   H      0.172733      0.796130     -1.176134
   H     -0.185907     -0.868145      1.244830
   H     -0.876329      0.773966      0.985450
   H      0.906874      0.554915      1.098940
   O     -0.001269     -0.476167      4.082325
   O     -0.230773      0.216354      6.255956
   C      0.227058      0.254236      5.082977
   H      0.977678      1.094654      4.894368
