   12
 0023.xyz Energy -0.107222
   N      0.550885     -0.270238     -0.311243
   C     -0.630586      0.309339      0.356289
   H      1.177678     -0.725643      0.365125
   H      1.096070      0.451307     -0.801168
   H      0.279019     -0.977907     -1.006379
   H     -0.277422      1.048654      1.077590
   H     -1.163984     -0.502141      0.855034
   H     -1.252545      0.774946     -0.410621
   O      0.148920      0.842433      4.116711
   O      0.092340     -0.650656      5.855795
   C     -0.236079     -0.187663      4.731204
   H     -1.016507     -0.807969      4.173118
