   12
 0025.xyz Energy -0.155987
   N     -0.039074     -0.046556      0.685333
   C      0.044731      0.053305     -0.784493
   H     -0.188941      0.875454      1.115654
   H      0.824590     -0.437512      1.084229
   H     -0.816698     -0.653811      0.975954
   H      0.884360      0.707212     -1.027422
   H     -0.896549      0.472612     -1.144956
   H      0.203207     -0.952187     -1.179011
   O     -0.586849      0.900499      4.136031
   O      0.857888     -0.722219      3.403601
   C     -0.265214     -0.174457      3.563365
   H     -1.142026     -0.751100      3.111712
