   12
 0026.xyz Energy -0.114559
   N      0.434055      0.327411     -0.421632
   C     -0.496848     -0.374787      0.482646
   H      1.404186      0.019895     -0.273251
   H      0.405647      1.344671     -0.272447
   H      0.201485      0.152733     -1.408200
   H     -0.198693     -0.150628      1.508533
   H     -0.420184     -1.444030      0.276241
   H     -1.503742     -0.006470      0.277021
   O     -0.808162     -0.000185      5.412038
   O      0.877585      0.315827      3.890419
   C     -0.067927     -0.308863      4.440598
   H     -0.292557     -1.329914      3.979835
