   12
 0030.xyz Energy -0.156397
   N     -0.002781      0.062179      0.685201
   C      0.003175     -0.071165     -0.784345
   H     -0.821194      0.593661      1.009955
   H      0.837198      0.552001      1.020446
   H     -0.028777     -0.857589      1.144842
   H      0.031146      0.933350     -1.210672
   H     -0.908573     -0.596100     -1.075754
   H      0.891009     -0.641378     -1.064311
   O      0.162889      0.294286      3.369920
   O     -0.496867     -0.319955      5.478086
   C      0.326804      0.025116      4.589595
   H      1.407184      0.108173      4.951793
