   12
 0031.xyz Energy -0.115405
   N     -0.206004      0.275621     -0.595794
   C      0.235809     -0.315513      0.681995
   H     -0.795630     -0.378336     -1.127225
   H      0.595374      0.523412     -1.191002
   H     -0.754302      1.132266     -0.442667
   H      0.808999     -1.215825      0.452913
   H     -0.655515     -0.555283      1.264930
   H      0.853865      0.423317      1.195716
   O      0.002876      0.131310      3.747540
   O     -0.006387     -0.472032      5.959514
   C      0.003436      0.333404      4.990956
   H      0.014794      1.435597      5.291536
