   12
 0033.xyz Energy -0.105993
   N      0.066041      0.509661     -0.457449
   C     -0.075607     -0.583409      0.523630
   H     -0.804144      0.653548     -0.986423
   H      0.811646      0.309053     -1.136940
   H      0.298657      1.399194      0.003572
   H     -0.320962     -1.494725     -0.024905
   H     -0.877683     -0.311908      1.212631
   H      0.875693     -0.685645      1.049321
   O     -0.345421      0.650837      5.715829
   O      0.560907     -0.781358      4.171705
   C     -0.210856      0.127714      4.577777
   H     -0.907946      0.549978      3.777112
