   12
 0038.xyz Energy -0.10668
   N      0.014743      0.664378     -0.178212
   C     -0.016865     -0.760506      0.204005
   H      0.956843      1.061518     -0.066568
   H     -0.626767      1.222032      0.400897
   H     -0.261886      0.795187     -1.160192
   H      0.284779     -0.832245      1.250643
   H      0.680789     -1.295448     -0.443201
   H     -1.037668     -1.121237      0.063978
   O      0.518439     -0.040506      4.203181
   O     -0.182981      0.070248      6.383244
   C     -0.328256     -0.029103      5.135867
   H     -1.413372     -0.125318      4.791521
