   12
 0040.xyz Energy -0.147922
   N     -0.103000      0.158000      0.662000
   C      0.118000     -0.181000     -0.757000
   H      0.218000     -0.597000      1.282000
   H     -1.100000      0.317000      0.858000
   H      0.405000      1.013000      0.926000
   H     -0.444000     -1.092000     -0.974000
   H      1.189000     -0.337000     -0.901000
   H     -0.242000      0.655000     -1.360000
   O      0.788600      0.510000      4.669500
   O     -0.720400     -0.746000      3.484500
   C      0.044600      0.234000      3.691500
   H      0.066600      1.004000      2.847500
