   12
 0041.xyz Energy -0.143891
   N     -0.103000      0.158000      0.662000
   C      0.118000     -0.181000     -0.757000
   H      0.218000     -0.597000      1.282000
   H     -1.100000      0.317000      0.858000
   H      0.405000      1.013000      0.926000
   H     -0.444000     -1.092000     -0.974000
   H      1.189000     -0.337000     -0.901000
   H     -0.242000      0.655000     -1.360000
   O      0.863800      0.512000      4.242500
   O     -0.645200     -0.744000      3.057500
   C      0.119800      0.236000      3.264500
   H      0.141800      1.006000      2.420500
