   12
 0046.xyz Energy -0.214342
   N     -0.366000      0.201000      0.503000
   C      0.469000     -0.396000     -0.521000
   H     -1.141000      0.798000      0.226000
   H      0.199000      0.735000      1.215000
   H     -0.751000     -0.518000      1.171000
   H      0.921000      0.409000     -1.103000
   H     -0.164000     -1.022000     -1.153000
   H      1.238000     -0.996000     -0.029000
   O      0.557080      0.802200      2.686680
   O     -0.783920     -0.965800      2.625680
   C     -0.041920     -0.156800      3.256680
   H      0.091080     -0.296800      4.361680
