    8
 0003.xyz Energy 0.12729
   C     -1.147360     -0.712016     -0.541685
   C      0.087427      0.061218      0.041112
   O      0.094655      1.342056     -0.120823
   O      0.971884     -0.680915      0.624148
   H     -1.861883     -0.021694     -1.006442
   H     -0.798343     -1.444586     -1.284660
   H     -1.639258     -1.273399      0.266417
   F      0.000000      0.000000      3.860000
