    8
 0005.xyz Energy 0.104949
   C      0.914002      0.938866      0.632419
   C     -0.068745     -0.073067     -0.054926
   O      0.064308     -0.230895     -1.329370
   O     -0.914063     -0.641472      0.742138
   H      1.610287      1.370239     -0.097097
   H      0.332074      1.739819      1.112336
   H      1.474083      0.420540      1.424751
   F      0.000000      0.000000      4.600000
