    8
 0006.xyz Energy 0.106542
   C      1.431509      0.248534      0.076391
   C     -0.113462     -0.013890     -0.003864
   O     -0.880357      0.904150      0.481825
   O     -0.449789     -1.135708     -0.552831
   H      1.643273      1.220963      0.537504
   H      1.905314     -0.553595      0.661698
   H      1.859552      0.212233     -0.936331
   F      0.000000      0.000000      4.480000
