    8
 0008.xyz Energy 0.104911
   C     -0.879977      0.895736      0.734929
   C      0.064774     -0.074648     -0.057562
   O     -0.354717     -1.285156     -0.217303
   O      1.172932      0.453124     -0.465483
   H     -1.804478      0.388051      1.035992
   H     -0.351790      1.268898      1.625016
   H     -1.117649      1.766180      0.105656
   F      0.000000      0.000000      3.900000
