    8
 0010.xyz Energy 0.0889659
   C      0.673178      0.388288      1.229995
   C     -0.049356     -0.026572     -0.099696
   O      0.260431      0.644792     -1.158055
   O     -0.886457     -1.005843      0.015391
   H      1.377286      1.211208      1.056439
   H     -0.080179      0.691465      1.972303
   H      1.206622     -0.481745      1.640633
   F      0.000000      0.000000      4.980000
