    8
 0011.xyz Energy 0.102636
   C      0.441777     -1.259294      0.579512
   C     -0.035864      0.101011     -0.039900
   O     -0.546288      0.959534      0.778161
   O      0.135689      0.210409     -1.317225
   H      0.280961     -1.277088      1.664366
   H     -0.109048     -2.085973      0.106565
   H      1.508847     -1.405860      0.355851
   F      0.000000      0.000000      4.700000
