    8
 0014.xyz Energy 0.112635
   C      0.929576      0.792559      0.790292
   C     -0.077388     -0.058145     -0.060923
   O     -1.307142      0.334950     -0.062130
   O      0.443688     -1.071935     -0.672206
   H      0.424543      1.641704      1.266719
   H      1.386877      0.151053      1.558296
   H      1.739901      1.154455      0.140254
   F      0.000000      0.000000      3.520000
