    8
 0015.xyz Energy 0.129877
   C      0.135761     -1.423771      0.266959
   C     -0.012869      0.112610     -0.015325
   O     -0.595888      0.813213      0.899041
   O      0.469758      0.509738     -1.147719
   H     -0.279640     -1.686949      1.247401
   H     -0.382282     -1.988898     -0.522185
   H      1.199667     -1.700133      0.223694
   F      0.000000      0.000000      3.680000
