    8
 0017.xyz Energy 0.095099
   C     -0.690546     -0.860915      0.948047
   C      0.059304      0.067174     -0.071078
   O      1.256986      0.426916      0.249803
   O     -0.615825      0.373300     -1.131005
   H     -0.056003     -1.091791      1.812419
   H     -1.611446     -0.361030      1.283523
   H     -0.988096     -1.791138      0.441794
   F      0.000000      0.000000      4.700000
