    8
 0020.xyz Energy 0.103491
   C      0.938141     -0.725780     -0.842590
   C     -0.070804      0.054862      0.071122
   O      0.021296     -0.154173      1.341808
   O     -0.893467      0.828659     -0.559290
   H      1.613284     -1.348441     -0.242955
   H      0.375621     -1.356227     -1.547285
   H      1.520266     -0.007089     -1.438205
   F      0.000000      0.000000      5.540000
