    8
 0022.xyz Energy 0.145611
   C     -0.577288     -0.092217     -1.332313
   C      0.039989      0.005498      0.107015
   O     -0.771577     -0.169747      1.095685
   O      1.308481      0.255795      0.142167
   H     -1.649117     -0.320810     -1.287439
   H     -0.420265      0.860723     -1.859319
   H     -0.050668     -0.872453     -1.901565
   F      0.000000      0.000000      3.940000
