    8
 0030.xyz Energy 0.0961363
   C     -0.614110      0.955263      0.909486
   C      0.049661     -0.078562     -0.066658
   O      0.671486     -1.069776      0.478912
   O     -0.100780      0.182517     -1.324498
   H     -0.460951      0.664596      1.955976
   H     -0.181688      1.951113      0.731218
   H     -1.690440      1.021373      0.692027
   F      0.000000      0.000000      4.700000
