    8
 0032.xyz Energy 0.115125
   C      1.331532      0.284375      0.512812
   C     -0.102126     -0.023757     -0.045688
   O     -0.185062     -0.289817     -1.306304
   O     -1.052531      0.025882      0.830225
   H      2.087735      0.209720     -0.278182
   H      1.342100      1.295881      0.945512
   H      1.565411     -0.421557      1.323431
   F      0.000000      0.000000      4.200000
