    8
 0006.xyz Energy -0.000517429
   H     -0.402057     -0.877722     -0.341348
   N      0.000002      0.000005      0.000002
   H      0.534268      0.445636     -0.751301
   H     -0.752507      0.625733      0.301235
   H      0.620266     -0.193714      0.791389
   O     -0.044550      0.039228      3.487617
   H     -0.090434     -0.915810      3.383127
   H      0.797620      0.293099      3.098487
