    8
 0011.xyz Energy -0.0187748
   H      0.973151     -0.310873     -0.069993
   N     -0.000005      0.000002      0.000000
   H     -0.449694     -0.077081     -0.916690
   H     -0.498152     -0.587150      0.675019
   H     -0.025232      0.975081      0.311659
   O      0.002348     -0.015165      3.356354
   H     -0.211776      0.837177      3.747232
   H      0.174497     -0.596450      4.103077
