    8
 0016.xyz Energy -0.0101309
   H      0.941478     -0.395724     -0.074744
   N     -0.000005      0.000002      0.000000
   H     -0.693456     -0.738265     -0.150232
   H     -0.127586      0.403516      0.932442
   H     -0.120364      0.730444     -0.707472
   O     -0.027174     -0.057519      3.444528
   H     -0.387272      0.623740      4.020147
   H      0.818632      0.289314      3.145461
