    8
 0020.xyz Energy -0.0162079
   H     -0.564681      0.150775      0.840813
   N      0.000003     -0.000001     -0.000005
   H     -0.097380     -0.972063     -0.306752
   H     -0.321143      0.626403     -0.743666
   H      0.983161      0.194897      0.209668
   O     -0.037908     -0.013929      3.568471
   H     -0.231018      0.591855      4.290175
   H      0.832767     -0.370744      3.767793
