    8
 0023.xyz Energy 0.00579187
   H      0.782901     -0.513286      0.414931
   N     -0.000004      0.000003     -0.000002
   H     -0.864838     -0.239628      0.493072
   H      0.170958      1.006432      0.080131
   H     -0.088961     -0.253557     -0.988103
   O      0.013656     -0.058601      3.725802
   H     -0.404067      0.124927      2.879075
   H      0.187296      0.805299      4.111350
