    8
 0027.xyz Energy 0.00405294
   H     -0.287245      0.074377      0.980063
   N      0.000002     -0.000000     -0.000005
   H     -0.016599      0.928257     -0.431915
   H      0.948522     -0.382624     -0.049566
   H     -0.644700     -0.620004     -0.498507
   O     -0.033664      0.046584      3.971350
   H      0.012633     -0.889045      4.189471
   H      0.521755      0.149564      3.192873
