    8
 0028.xyz Energy 0.0113459
   H     -0.825609     -0.251687     -0.550988
   N      0.000005      0.000001      0.000003
   H      0.316128     -0.815161      0.532975
   H      0.748037      0.308570     -0.627516
   H     -0.238619      0.758260      0.645489
   O      0.001370     -0.000403      3.505454
   H     -0.565920     -0.520859      2.928887
   H      0.544172      0.527250      2.912099
