    8
 0032.xyz Energy -0.034718
   H      1.010000     -0.363000     -1.621000
   N      0.149000      0.103000     -1.331000
   H     -0.646000     -0.332000     -1.799000
   H      0.031000      0.019000     -0.262000
   H      0.199000      1.088000     -1.595000
   O     -0.142000     -0.099000      1.269000
   H     -0.516000      0.594000      1.834000
   H      0.108000     -0.874000      1.793000
