    8
 0034.xyz Energy -0.0305427
   H      1.010000     -0.363000     -1.621000
   N      0.149000      0.103000     -1.331000
   H     -0.646000     -0.332000     -1.799000
   H      0.031000      0.019000     -0.262000
   H      0.199000      1.088000     -1.595000
   O     -0.124700     -0.087200      1.115900
   H     -0.498700      0.605800      1.680900
   H      0.125300     -0.862200      1.639900
