    8
 0027.xyz Energy -0.166019
   C     -0.921018      1.055629      0.392679
   C      0.073575     -0.079838     -0.035974
   O      0.585448      0.017490     -1.217217
   O      0.270154     -0.998832      0.852711
   H     -1.028383      1.806251     -0.399865
   H     -1.901133      0.611322      0.621701
   H     -0.553695      1.532157      1.313624
  Li      0.000000      0.000000      3.500000
