    8
 0029.xyz Energy -0.141287
   C      0.540822     -0.523919     -1.244927
   C     -0.037013      0.040387      0.100401
   O      0.743668     -0.005598      1.127652
   O     -1.246803      0.492346      0.029016
   H      1.571974     -0.874645     -1.115302
   H     -0.094479     -1.351994     -1.593022
   H      0.505608      0.262047     -2.013798
  Li      0.000000      0.000000      4.560000
