    8
 0030.xyz Energy -0.134339
   C      0.300135      1.387662     -0.318018
   C     -0.029502     -0.107561      0.025333
   O     -1.254012     -0.370925      0.338437
   O      0.975694     -0.918672     -0.042757
   H     -0.597951      2.014251     -0.255445
   H      1.064631      1.759680      0.380289
   H      0.726339      1.442721     -1.330669
  Li      0.000000      0.000000      3.880000
