    8
 0032.xyz Energy -0.15281
   C      0.386173      1.206918     -0.714873
   C     -0.029549     -0.098010      0.051013
   O     -0.153604     -1.168897     -0.659362
   O     -0.205515      0.047692      1.324105
   H      0.532863      1.007652     -1.783452
   H     -0.394972      1.970040     -0.580923
   H      1.313021      1.605936     -0.276831
  Li      0.000000      0.000000      4.340000
