    8
 0034.xyz Energy -0.131822
   C      1.043910     -1.006429      0.119061
   C     -0.082555      0.077670     -0.015276
   O     -0.524017      0.306041     -1.206821
   O     -0.445858      0.629461      1.096701
   H      1.290916     -1.442013     -0.856819
   H      1.940142     -0.544944      0.559838
   H      0.708699     -1.795590      0.808265
  Li      0.000000      0.000000      4.520000
