    8
 0036.xyz Energy -0.115607
   C      0.558594      1.304579      0.320730
   C     -0.043080     -0.101274     -0.031130
   O     -0.229214     -0.351759     -1.283900
   O     -0.290122     -0.860570      0.986414
   H      0.756901      1.887463     -0.587019
   H     -0.145823      1.848538      0.967561
   H      1.489700      1.169244      0.890704
  Li      0.000000      0.000000      4.900000
