    8
 0039.xyz Energy -0.117965
   C     -0.435377     -1.221865      0.659025
   C      0.038752      0.096449     -0.047721
   O      0.999999      0.742813      0.522400
   O     -0.595970      0.392679     -1.135072
   H      0.154033     -1.419164      1.562770
   H     -1.500232     -1.130157      0.920100
   H     -0.340951     -2.064384     -0.041966
  Li      0.000000      0.000000      4.400000
