    8
 0040.xyz Energy -0.121807
   C      1.270672     -0.627181     -0.329939
   C     -0.097445      0.051084      0.031247
   O     -0.201048      0.543072      1.220379
   O     -0.980023      0.039402     -0.914203
   H      1.974452     -0.567635      0.509248
   H      1.094069     -1.680183     -0.595427
   H      1.698962     -0.133280     -1.214683
  Li      0.000000      0.000000      4.940000
