    8
 0041.xyz Energy -0.113783
   C     -0.341248      1.414314      0.009457
   C      0.026205     -0.111204      0.005336
   O      0.168357     -0.673279      1.158889
   O      0.148998     -0.640930     -1.168235
   H     -0.444191      1.792753      1.033797
   H      0.442127      1.977090     -0.519781
   H     -1.281413      1.563324     -0.541931
  Li      0.000000      0.000000      5.120000
