    8
 0042.xyz Energy -0.154743
   C      0.656750      1.292000      0.127428
   C     -0.049448     -0.101929     -0.015714
   O     -0.011033     -0.650645     -1.183727
   O     -0.599624     -0.549828      1.065788
   H      1.113114      1.602460     -0.820429
   H     -0.082002      2.041039      0.449409
   H      1.425509      1.231250      0.911942
  Li      0.000000      0.000000      3.960000
