    8
 0045.xyz Energy -0.138746
   C      1.307688      0.316093     -0.553949
   C     -0.101178     -0.030740      0.043584
   O     -0.382136     -1.284722      0.167730
   O     -0.833266      0.991530      0.346844
   H      1.878615     -0.594505     -0.772900
   H      1.176036      0.904803     -1.474044
   H      1.861171      0.943402      0.160393
  Li      0.000000      0.000000      3.880000
