    8
 0047.xyz Energy -0.152386
   C      1.386959      0.439493      0.003737
   C     -0.109083     -0.033895      0.005782
   O     -0.657242     -0.208178      1.161622
   O     -0.631532     -0.200471     -1.165652
   H      1.759549      0.574785      1.026458
   H      2.002033     -0.305693     -0.522446
   H      1.468525      1.384481     -0.553477
  Li      0.000000      0.000000      4.100000
