    8
 0049.xyz Energy -0.110383
   C     -0.661186      1.064965      0.738584
   C      0.051863     -0.087097     -0.052970
   O      0.412811     -1.120023      0.632304
   O      0.201786      0.130793     -1.319068
   H     -0.768281      0.807442      1.799385
   H     -0.075976      1.990992      0.636170
   H     -1.650809      1.251765      0.295982
  Li      0.000000      0.000000      4.780000
