    8
 0051.xyz Energy -0.117959
   C      1.276675     -0.498837     -0.487941
   C     -0.103146      0.035175      0.034715
   O     -1.158993     -0.436840     -0.539052
   O     -0.027101      0.900904      0.992674
   H      1.137106     -1.237966     -1.286248
   H      1.874224      0.346115     -0.861408
   H      1.832300     -0.949439      0.347752
  Li      0.000000      0.000000      4.900000
