    8
 0052.xyz Energy -0.121253
   C     -0.803035     -1.078746      0.555216
   C      0.066923      0.080586     -0.045920
   O      1.180410     -0.262695     -0.601910
   O     -0.434440      1.265531      0.086355
   H     -0.326844     -2.053675      0.394460
   H     -0.943897     -0.904846      1.632436
   H     -1.798852     -1.065874      0.087960
  Li      0.000000      0.000000      4.020000
