    8
 0053.xyz Energy -0.154406
   C     -0.497092      0.527047     -1.261723
   C      0.040046     -0.046775      0.096384
   O      0.315978     -1.307762      0.120786
   O      0.145673      0.818451      1.051989
   H     -0.546449     -0.255376     -2.028837
   H     -1.496827      0.958048     -1.102809
   H      0.161458      1.341459     -1.598159
  Li      0.000000      0.000000      4.220000
