    8
 0055.xyz Energy -0.122463
   C      1.350729      0.111443     -0.529088
   C     -0.108301     -0.007437      0.036015
   O     -1.066052      0.314301     -0.767737
   O     -0.188916     -0.417794      1.259970
   H      1.343517      0.448712     -1.572776
   H      1.921878      0.820397      0.088697
   H      1.850489     -0.865660     -0.453890
  Li      0.000000      0.000000      5.000000
