    8
 0057.xyz Energy -0.161988
   C      0.837091     -0.320303     -1.146084
   C     -0.070705      0.024004      0.086638
   O     -1.344037      0.051765     -0.124722
   O      0.566627      0.246178      1.189998
   H      0.232002     -0.511215     -2.040794
   H      1.526779      0.516280     -1.333016
   H      1.449133     -1.203752     -0.911420
  Li      0.000000      0.000000      4.140000
