    8
 0058.xyz Energy -0.152922
   C      1.183564     -0.781398      0.324681
   C     -0.092419      0.064294     -0.020163
   O     -0.535719      0.844120      0.908371
   O     -0.564285     -0.118411     -1.210506
   H      1.537311     -0.565898      1.340314
   H      0.945160     -1.851410      0.231277
   H      1.976306     -0.557171     -0.404308
  Li      0.000000      0.000000      3.800000
