    8
 0063.xyz Energy -0.145854
   C      1.223222      0.698968      0.363311
   C     -0.093113     -0.057535     -0.033183
   O     -0.057537     -0.742318     -1.127087
   O     -1.079488      0.093195      0.789800
   H      2.019714      0.515080     -0.368038
   H      1.016057      1.777642      0.426791
   H      1.546349      0.367783      1.361334
  Li      0.000000      0.000000      3.840000
