    8
 0066.xyz Energy -0.119637
   C     -0.667171     -0.575579     -1.157763
   C      0.048732      0.041961      0.094583
   O     -0.454924     -0.247146      1.247652
   O      1.075119      0.782466     -0.172133
   H     -1.516243     -1.201961     -0.858081
   H     -1.015106      0.236629     -1.813312
   H      0.056040     -1.173444     -1.731930
  Li      0.000000      0.000000      5.240000
