    8
 0021.xyz Energy -0.101435
   C      0.516319     -0.836956      1.072261
   C     -0.046188      0.065036     -0.081966
   O     -1.330706      0.170459     -0.157597
   O      0.851422      0.607199     -0.839140
   H     -0.296419     -1.250386      1.681867
   H      1.109704     -1.654632      0.636618
   H      1.192531     -0.240887      1.702802
  Na      0.000000      0.000000      4.860000
