    8
 0025.xyz Energy -0.107699
   C      0.854302     -0.765308      0.895151
   C     -0.066393      0.064992     -0.066705
   O     -0.373890      1.258669      0.317225
   O     -0.420205     -0.548016     -1.149292
   H      1.127244     -0.180886      1.782304
   H      0.327366     -1.682014      1.199247
   H      1.761679     -1.072635      0.354447
  Na      0.000000      0.000000      4.700000
