    8
 0027.xyz Energy -0.126796
   C     -0.384421      0.385073     -1.349356
   C      0.034371     -0.034037      0.103641
   O      0.893436     -0.992730      0.202312
   O     -0.536739      0.635113      1.051811
   H      0.147774     -0.210791     -2.100889
   H     -1.470118      0.250757     -1.466426
   H     -0.168469      1.453719     -1.495998
  Na      0.000000      0.000000      4.960000
