    8
 0030.xyz Energy -0.142485
   C      0.762464      0.056037     -1.237874
   C     -0.054814     -0.003022      0.100338
   O      0.620498      0.115910      1.194244
   O     -1.329467     -0.168307     -0.044215
   H      1.830210      0.212622     -1.041695
   H      0.618283     -0.883336     -1.792199
   H      0.372913      0.870691     -1.866152
  Na      0.000000      0.000000      4.560000
