    8
 0031.xyz Energy -0.106188
   C      1.131977     -0.367297      0.836985
   C     -0.092143      0.024303     -0.063249
   O     -1.116430     -0.760243     -0.016945
   O      0.064899      1.101867     -0.761210
   H      0.924515     -1.278942      1.410526
   H      2.016043     -0.519694      0.200049
   H      1.360187      0.462998      1.521583
  Na      0.000000      0.000000      4.600000
