    8
 0032.xyz Energy -0.0933036
   C     -1.101394      0.311648      0.898126
   C      0.089900     -0.026081     -0.065721
   O      1.211706     -0.338879      0.491530
   O     -0.188481      0.049615     -1.326566
   H     -0.799834      0.212823      1.948070
   H     -1.445197      1.338438      0.703224
   H     -1.944108     -0.362452      0.684664
  Na      0.000000      0.000000      5.500000
