    8
 0034.xyz Energy -0.104669
   C     -1.451433     -0.098305     -0.022382
   C      0.113558      0.012421      0.005635
   O      0.609333      1.014619      0.651102
   O      0.739464     -0.923590     -0.630825
   H     -1.915019      0.716079      0.547665
   H     -1.798129     -0.068258     -1.066118
   H     -1.754767     -1.069377      0.396129
  Na      0.000000      0.000000      5.060000
