    8
 0035.xyz Energy -0.0994228
   C     -0.015771      0.995647      1.060783
   C     -0.000230     -0.082492     -0.079224
   O     -0.152386     -1.311161      0.286892
   O      0.167372      0.386320     -1.272992
   H     -0.176650      0.531051      2.041271
   H      0.940335      1.540015      1.057665
   H     -0.810907      1.728190      0.857601
  Na      0.000000      0.000000      5.120000
