    8
 0038.xyz Energy -0.107297
   C     -1.428620     -0.134540     -0.240350
   C      0.113083      0.011312      0.012878
   O      0.865005      0.085320     -1.034001
   O      0.462494      0.039437      1.257898
   H     -1.653908     -0.135945     -1.313816
   H     -1.784031     -1.069854      0.217204
   H     -1.958102      0.693861      0.253151
  Na      0.000000      0.000000      5.500000
