    8
 0040.xyz Energy -0.133567
   C     -0.308541      1.389071     -0.303492
   C      0.025378     -0.107516      0.029625
   O      0.481547     -0.346904      1.213442
   O     -0.194752     -0.944025     -0.932016
   H     -0.113293      2.038392      0.558685
   H      0.299537      1.713736     -1.161000
   H     -1.364501      1.468343     -0.601497
  Na      0.000000      0.000000      4.580000
