    8
 0042.xyz Energy -0.116163
   C     -1.418130      0.148056      0.289501
   C      0.110291     -0.010107     -0.028553
   O      0.455910      0.099918     -1.267610
   O      0.861978     -0.237835      0.999096
   H     -1.991835      0.353812     -0.622427
   H     -1.786998     -0.774089      0.762862
   H     -1.556370      0.965697      1.012341
  Na      0.000000      0.000000      4.880000
