    8
 0046.xyz Energy -0.125346
   C      0.540813     -1.151113     -0.706600
   C     -0.038350      0.089556      0.059921
   O      0.444056      0.317836      1.235503
   O     -0.947131      0.751812     -0.579212
   H      1.314632     -1.654879     -0.114561
   H     -0.276301     -1.853644     -0.928544
   H      0.959853     -0.820956     -1.668653
  Na      0.000000      0.000000      4.900000
