    8
 0047.xyz Energy -0.0962512
   C      0.648355     -1.135831      0.637454
   C     -0.055105      0.085426     -0.052414
   O     -1.033743     -0.187324     -0.849092
   O      0.431762      1.243142      0.256794
   H      0.176341     -2.081154      0.343084
   H      1.712355     -1.146492      0.357674
   H      0.597650     -1.015193      1.729708
  Na      0.000000      0.000000      5.180000
