    8
 0052.xyz Energy -0.115146
   C     -1.291434     -0.431523     -0.512649
   C      0.103565      0.034094      0.034544
   O      1.059082      0.129072     -0.828467
   O      0.140852      0.271718      1.305410
   H     -1.254400     -0.599632     -1.595910
   H     -1.590389     -1.358380     -0.000743
   H     -2.047645      0.331856     -0.276974
  Na      0.000000      0.000000      5.280000
