    8
 0053.xyz Energy -0.112633
   C      0.451030     -0.756710     -1.157923
   C     -0.031475      0.056338      0.094429
   O      0.446575     -0.307275      1.237265
   O     -0.866214      1.010614     -0.161548
   H      1.166171     -1.537065     -0.870335
   H     -0.420234     -1.212085     -1.651904
   H      0.915742     -0.069631     -1.880495
  Na      0.000000      0.000000      5.480000
