    8
 0056.xyz Energy -0.113939
   C     -0.895738     -0.967272      0.615518
   C      0.074771      0.074233     -0.044500
   O      1.230428      0.219213      0.512509
   O     -0.398532      0.679937     -1.084722
   H     -0.425658     -1.452339      1.479707
   H     -1.817245     -0.455067      0.930090
   H     -1.179503     -1.723743     -0.131056
  Na      0.000000      0.000000      4.520000
