    8
 0057.xyz Energy -0.114317
   C     -1.106811      0.874153     -0.357281
   C      0.085119     -0.068466      0.033892
   O      0.258616     -0.285920      1.294619
   O      0.770187     -0.526257     -0.963136
   H     -1.651520      1.211837      0.532858
   H     -0.716085      1.742754     -0.908056
   H     -1.788555      0.336888     -1.033087
  Na      0.000000      0.000000      5.260000
