   13
 0000.xyz Energy 0.132349
   H      0.509651     -0.835714     -0.300672
   N     -0.000003      0.000005      0.000002
   H     -1.007204     -0.173960     -0.061352
   H      0.249669      0.222228      0.967901
   H      0.247923      0.787382     -0.605900
   N     -0.038163      0.091627      3.679175
   C      0.043682     -0.104871      5.139336
   H      0.164984      1.065999      3.420198
   H     -0.976129     -0.134192      3.322656
   H      0.634264     -0.507331      3.182173
   H     -0.689972      0.554634      5.606659
   H      1.057431      0.149840      5.454292
   H     -0.180781     -1.152578      5.348384
