   13
 0003.xyz Energy 0.120492
   H     -0.145370     -0.363138      0.946342
   N      0.000001      0.000002     -0.000005
   H     -0.624811      0.795273     -0.160122
   H      0.972434      0.303698     -0.103396
   H     -0.202265     -0.735860     -0.682752
   N      0.406218     -0.274408      4.177235
   C     -0.464988      0.314105      5.212626
   H      0.817548     -1.162251      4.493905
   H      1.181375      0.357254      3.936370
   H     -0.116523     -0.466511      3.312506
   H      0.145110      0.493603      6.099839
   H     -1.263204     -0.400285      5.423004
   H     -0.868431      1.248563      4.817917
