   13
 0007.xyz Energy 0.119121
   H     -0.053564      0.193677      1.004084
   N      0.000000     -0.000001     -0.000005
   H      0.142903      0.876605     -0.509537
   H      0.783230     -0.633407     -0.184114
   H     -0.872573     -0.436860     -0.310357
   N      0.078380      0.375704      4.228967
   C     -0.089720     -0.430076      5.453649
   H     -0.148804     -0.169895      3.387274
   H      1.046288      0.709136      4.129683
   H     -0.534229      1.201879      4.236939
   H      0.583283     -1.286756      5.384704
   H     -1.131711     -0.752204      5.501076
   H      0.165082      0.201744      6.306675
