   13
 0010.xyz Energy 0.102773
   H     -0.897995      0.490941     -0.033859
   N      0.000005     -0.000003      0.000000
   H     -0.154456     -1.003541     -0.132418
   H      0.609913      0.352467     -0.743186
   H      0.442470      0.160171      0.909460
   N     -0.349610      0.416207      5.161804
   C      0.400188     -0.476424      4.257154
   H     -1.266215      0.665391      4.767493
   H      0.161991      1.291893      5.333033
   H     -0.515775     -0.028571      6.074208
   H      0.543596      0.050148      3.311775
   H     -0.191867     -1.382669      4.115900
   H      1.357908     -0.702851      4.729675
