   13
 0016.xyz Energy 0.136304
   H     -0.890911     -0.320103      0.390354
   N      0.000005      0.000002     -0.000002
   H      0.574249      0.403076      0.745825
   H      0.493293     -0.793072     -0.419823
   H     -0.176699      0.710075     -0.716326
   N      0.003600     -0.001757      3.511989
   C     -0.004117      0.002024      4.987560
   H      0.601778      0.746830      3.138440
   H     -0.941739      0.138863      3.131935
   H      0.356559     -0.893933      3.141369
   H     -0.386751      0.969828      5.317003
   H      1.022042     -0.150746      5.327294
   H     -0.652857     -0.810546      5.320184
