   13
 0020.xyz Energy 0.127134
   H     -0.519121     -0.431025      0.770257
   N      0.000003      0.000002     -0.000004
   H      0.367106     -0.731309     -0.615554
   H     -0.624832      0.612259     -0.532238
   H      0.776807      0.550042      0.377593
   N      0.131936     -0.313867      3.862124
   C     -0.151012      0.359284      5.144384
   H      1.117734     -0.600065      3.798643
   H     -0.062893      0.304192      3.063423
   H     -0.443573     -1.158575      3.747330
   H      0.487310      1.242667      5.205753
   H      0.074328     -0.344513      5.947909
   H     -1.206857      0.636653      5.150065
