   13
 0022.xyz Energy 0.130376
   H      1.021372     -0.073071      0.004876
   N     -0.000006      0.000000     -0.000000
   H     -0.409416     -0.938271      0.022659
   H     -0.308409      0.526930      0.822059
   H     -0.303471      0.484406     -0.849593
   N      0.073767      0.259722      3.727167
   C     -0.084444     -0.297290      5.084403
   H      0.195772      1.280599      3.752925
   H     -0.748648      0.061027      3.142331
   H      0.894699     -0.138188      3.252133
   H     -0.967395      0.161835      5.532942
   H      0.815742     -0.054258      5.652172
   H     -0.209017     -1.377686      4.989536
