   13
 0024.xyz Energy 0.130601
   H      1.009223     -0.138784     -0.103787
   N     -0.000006      0.000001      0.000001
   H     -0.487280     -0.435816     -0.788105
   H     -0.315185     -0.428184      0.875139
   H     -0.206682      1.002773      0.016745
   N      0.516263     -0.427268      3.764150
   C     -0.590969      0.489079      4.098405
   H      0.189860     -1.400155      3.695680
   H      1.255326     -0.398410      4.478876
   H      0.947273     -0.181301      2.863234
   H     -1.004040      0.177106      5.059463
   H     -1.338399      0.412643      3.306404
   H     -0.182170      1.499681      4.156202
