   13
 0029.xyz Energy 0.129722
   H      0.361084     -0.224646     -0.931513
   N     -0.000002      0.000001      0.000005
   H     -0.952130     -0.364803      0.094091
   H      0.600823     -0.426683      0.710989
   H     -0.009750      1.016115      0.126363
   N      0.550091     -0.397820      3.831863
   C     -0.629682      0.455382      3.591938
   H      1.248231     -0.290814      3.084274
   H      0.291122     -1.392352      3.873368
   H      1.009725     -0.160388      4.720841
   H     -1.070307      0.155705      2.639243
   H     -0.290583      1.492527      3.558714
   H     -1.329124      0.297214      4.415065
