    4
 0005.xyz Energy -0.0531879
   O     -0.349000      1.224000      0.000000
   H      0.525000      1.621000      0.000000
   H     -0.113000      0.173000      0.000000
   F      0.288733     -1.268133      0.000000
