    4
 0018.xyz Energy -0.0499239
   O     -0.297000      1.235000      0.000000
   H      0.581000      1.612000      0.000000
   H     -0.095000      0.194000      0.000000
   F      0.269332     -1.325000      0.000000
