    4
 0032.xyz Energy 3.84965e-05
   O     -0.034023     -0.012941      0.388272
   H     -0.597568      0.457856     -0.232944
   H      0.631591     -0.444915     -0.155328
   F      0.000000      0.000000     72.928643
