    4
 0042.xyz Energy 2.66191e-05
   O     -0.093271     -0.266799      0.268699
   H     -0.463556      0.615044      0.166792
   H      0.556826     -0.348246     -0.435491
   F      0.000000      0.000000     72.914005
