    4
 0051.xyz Energy -4.33844e-05
   O      0.007791     -0.203062     -0.332844
   H     -0.666257      0.418656     -0.042555
   H      0.658466     -0.215594      0.375399
   F      0.000000      0.000000     62.957612
