    4
 0059.xyz Energy -4.02529e-05
   O     -0.229628      0.280794     -0.143199
   H     -0.023631     -0.568281     -0.545419
   H      0.253259      0.287487      0.688618
   F      0.000000      0.000000     44.265149
