    4
 0071.xyz Energy 1.32402e-06
   O     -0.219067     -0.322257      0.015508
   H     -0.239231      0.428266      0.616717
   H      0.458297     -0.106009     -0.632225
   F      0.000000      0.000000     63.009063
