    4
 0080.xyz Energy 1.44665e-05
   O     -0.101799      0.368416      0.077372
   H      0.660953      0.065301     -0.424098
   H     -0.559154     -0.433718      0.346726
   F      0.000000      0.000000     53.504775
