    4
 0085.xyz Energy -0.00255061
   O      0.168714      0.061112     -0.346239
   H      0.240190      0.605459      0.443521
   H     -0.408903     -0.666571     -0.097283
   F      0.000000      0.000000      8.273036
