    4
 0113.xyz Energy 0.000154412
   O     -0.003419      0.135364      0.365712
   H     -0.306747      0.586385     -0.427834
   H      0.310165     -0.721749      0.062122
   F      0.000000      0.000000     35.397924
