    4
 0135.xyz Energy 7.07802e-05
   O     -0.000995      0.030804      0.388755
   H      0.087954      0.740740     -0.254069
   H     -0.086959     -0.771544     -0.134685
   F      0.000000      0.000000     53.899157
