    4
 0143.xyz Energy -0.00012663
   O      0.036760     -0.246106     -0.300268
   H      0.579087     -0.206146      0.493098
   H     -0.615847      0.452252     -0.192830
   F      0.000000      0.000000     35.033386
