    4
 0158.xyz Energy 4.78029e-06
   O     -0.237463      0.302305      0.065602
   H     -0.175743     -0.513553      0.571280
   H      0.413205      0.211249     -0.636882
   F      0.000000      0.000000     82.292894
