    4
 0174.xyz Energy -6.4381e-05
   O     -0.306530     -0.044427     -0.236951
   H      0.508704      0.432699     -0.418300
   H     -0.202174     -0.388272      0.655251
   F      0.000000      0.000000     44.255680
