    4
 0203.xyz Energy 0.000134704
   O     -0.226940     -0.039359      0.314690
   H      0.147028     -0.739810     -0.228136
   H      0.079912      0.779170     -0.086553
   F      0.000000      0.000000     35.391458
