    4
 0218.xyz Energy -1.85946e-05
   O      0.021156      0.308653     -0.237415
   H      0.078086     -0.620499     -0.479444
   H     -0.099242      0.311846      0.716858
   F      0.000000      0.000000     82.332612
