    4
 0237.xyz Energy 3.75467e-05
   O     -0.022979     -0.088477      0.379109
   H      0.527352      0.584679     -0.032157
   H     -0.504372     -0.496201     -0.346952
   F      0.000000      0.000000     72.927336
