    4
 0260.xyz Energy 0.00268371
   O      0.095797      0.065897      0.372238
   H      0.399860      0.545912     -0.403826
   H     -0.495656     -0.611809      0.031588
   F      0.000000      0.000000      8.648487
