    4
 0268.xyz Energy 2.86496e-05
   O      0.095797      0.065897      0.372238
   H      0.399860      0.545912     -0.403826
   H     -0.495656     -0.611809      0.031588
   F      0.000000      0.000000     82.640487
