    4
 0286.xyz Energy 4.62638e-05
   O      0.057447      0.154077      0.353611
   H     -0.443337     -0.637406      0.134718
   H      0.385891      0.483329     -0.488328
   F      0.000000      0.000000     63.342638
