    4
 0305.xyz Energy -6.26354e-05
   O     -0.150875      0.088151     -0.348635
   H     -0.394990     -0.643197      0.226414
   H      0.545865      0.555046      0.122221
   F      0.000000      0.000000     53.489712
