    4
 0316.xyz Energy 3.77661e-05
   O     -0.152561     -0.216175      0.286485
   H     -0.626315      0.296820     -0.374980
   H      0.778876     -0.080645      0.088495
   F      0.000000      0.000000     63.334628
