    4
 0330.xyz Energy -0.00266001
   O     -0.094476      0.070819     -0.371671
   H      0.733600      0.278816      0.071241
   H     -0.639124     -0.349636      0.300430
   F      0.000000      0.000000      8.249909
