    4
 0343.xyz Energy 0.000102193
   O     -0.283177     -0.117538      0.240990
   H      0.153001     -0.632601     -0.444285
   H      0.130176      0.750139      0.203295
   F      0.000000      0.000000     35.383810
