    4
 0369.xyz Energy 1.04617e-05
   O     -0.340075      0.083252      0.171751
   H     -0.198132     -0.445406     -0.619145
   H      0.538207      0.362154      0.447393
   F      0.000000      0.000000     92.112782
