    4
 0374.xyz Energy -7.81075e-05
   O     -0.244946     -0.069279     -0.295436
   H     -0.387391      0.510190      0.458930
   H      0.632336     -0.440912     -0.163495
   F      0.000000      0.000000     44.208929
