    4
 0383.xyz Energy 8.28419e-05
   O     -0.240520      0.241721      0.189212
   H     -0.456476     -0.609089     -0.204017
   H      0.696996      0.367369      0.014804
   F      0.000000      0.000000     35.379641
