    4
 0393.xyz Energy -1.09049e-05
   O      0.168617     -0.351568     -0.006961
   H      0.061858      0.260630     -0.741100
   H     -0.230476      0.090938      0.748060
   F      0.000000      0.000000     35.100526
