    4
 0408.xyz Energy 2.85132e-05
   O      0.027746     -0.118298      0.370562
   H      0.338841     -0.577847     -0.415045
   H     -0.366587      0.696145      0.044483
   F      0.000000      0.000000     82.640255
