    4
 0426.xyz Energy -0.0361329
   O     -0.297000      1.235000      0.000000
   H      0.581000      1.612000      0.000000
   H     -0.095000      0.194000      0.000000
   F      0.374220     -1.762309      0.000000
