    4
 0539.xyz Energy 8.56833e-06
   O      0.262164      0.251411      0.141925
   H      0.341032     -0.292644     -0.647333
   H     -0.603196      0.041233      0.505408
   F      0.000000      0.000000     92.124696
