    4
 0555.xyz Energy -1.83647e-05
   O     -0.354143      0.124312     -0.105874
   H      0.477876      0.602176     -0.173209
   H     -0.123732     -0.726489      0.279083
   F      0.000000      0.000000     53.495540
