    4
 0566.xyz Energy 2.27631e-05
   O     -0.155520      0.312117      0.174576
   H     -0.268994     -0.611466      0.418013
   H      0.424514      0.299349     -0.592588
   F      0.000000      0.000000     62.964948
