    4
 0579.xyz Energy 1.06388e-05
   O      0.042715     -0.346164      0.174432
   H     -0.475060     -0.146991     -0.611306
   H      0.432345      0.493155      0.436874
   F      0.000000      0.000000     92.110771
