    4
 0584.xyz Energy 4.13265e-05
   O     -0.263954     -0.244125      0.151036
   H     -0.426818      0.515862     -0.415567
   H      0.690771     -0.271737      0.264531
   F      0.000000      0.000000     44.178365
