    4
 0599.xyz Energy -7.7869e-06
   O     -0.254176     -0.265686     -0.129946
   H     -0.370718      0.688518     -0.097439
   H      0.624894     -0.422832      0.227384
   F      0.000000      0.000000     92.080475
