    4
 0610.xyz Energy -0.00278234
   O      0.030117      0.017972     -0.388394
   H      0.623192      0.404404      0.262816
   H     -0.653308     -0.422375      0.125578
   F      0.000000      0.000000      8.245279
