    4
 0637.xyz Energy -0.0491242
   O     -0.349000      1.224000      0.000000
   H      0.525000      1.621000      0.000000
   H     -0.113000      0.173000      0.000000
   F      0.353053     -1.399474      0.000000
