    4
 0641.xyz Energy -0.0414676
   O     -0.349000      1.224000      0.000000
   H      0.525000      1.621000      0.000000
   H     -0.113000      0.173000      0.000000
   F      0.199053     -0.879874      0.000000
