   12
 0000.xyz Energy -0.154328
   N     -0.247158      0.090329      1.218887
   C     -0.296714     -0.449305     -0.185513
   H     -0.843103     -0.473278      1.848351
   H     -0.582134      1.067935      1.247106
   H      0.719409      0.069054      1.584991
   H     -1.345899     -0.428027     -0.495882
   H      0.038419     -1.489874     -0.135893
   C      0.559535      0.320736     -1.206906
   H      0.234578      1.361582     -1.278612
   H      0.467774     -0.134503     -2.196148
   H      1.613771      0.303917     -0.919827
  Cl      0.000000      0.000000      4.580000
