   12
 0001.xyz Energy -0.106483
   N     -0.919437      0.551179     -0.636999
   C      0.452175      0.003351     -0.346201
   H     -0.956838      0.957949     -1.586825
   H     -1.169154      1.290756      0.040781
   H     -1.631744     -0.195700     -0.577605
   H      1.155164      0.834557     -0.457887
   H      0.662440     -0.746028     -1.115474
   C      0.616376     -0.627881      1.048055
   H      0.419551      0.107511      1.831994
   H      1.636024     -0.999412      1.176678
   H     -0.071549     -1.467077      1.176974
  Cl      0.000000      0.000000      4.760000
