   12
 0004.xyz Energy -0.106421
   N     -0.056869      0.550373     -1.117491
   C      0.073163      0.420885      0.376605
   H      0.004230      1.541579     -1.405252
   H     -0.965303      0.176376     -1.439346
   H      0.695795      0.028305     -1.596742
   H     -0.729699      1.019903      0.817243
   H      1.036744      0.862284      0.649071
   C     -0.004470     -1.020179      0.912024
   H     -0.964313     -1.476684      0.658245
   H      0.098825     -1.024904      1.999944
   H      0.795437     -1.633831      0.490488
  Cl      0.000000      0.000000      4.780000
