   12
 0005.xyz Energy -0.149989
   N      0.280779     -0.371208      1.156849
   C      0.400270      0.379168     -0.142635
   H      1.046353     -0.110787      1.801136
   H      0.327570     -1.391302      0.995797
   H     -0.618049     -0.158052      1.620972
   H      1.381402      0.133838     -0.560681
   H      0.375522      1.444878      0.104768
   C     -0.695168      0.063680     -1.176971
   H     -0.681503     -0.995590     -1.445039
   H     -0.535366      0.648110     -2.086458
   H     -1.683723      0.310337     -0.781965
  Cl      0.000000      0.000000      4.640000
