   12
 0015.xyz Energy -0.139715
   N     -0.555363     -1.060390      0.349394
   C      0.501290      0.008814      0.270110
   H     -0.258329     -1.821693      0.982811
   H     -0.733830     -1.468151     -0.583665
   H     -1.443604     -0.670972      0.707331
   H      1.416622     -0.476364     -0.082509
   H      0.661128      0.370977      1.290330
   C      0.157456      1.193623     -0.650418
   H      0.002838      0.854188     -1.677539
   H      0.973056      1.920987     -0.650339
   H     -0.750036      1.698257     -0.309955
  Cl      0.000000      0.000000      4.100000
