   12
 0016.xyz Energy -0.0999473
   N     -0.275405     -0.166629     -1.204707
   C      0.562502     -0.078070      0.042718
   H      0.311679     -0.397673     -2.023841
   H     -0.749908      0.732697     -1.391197
   H     -0.998037     -0.899644     -1.108638
   H      1.321587      0.688795     -0.139708
   H      1.057098     -1.047151      0.160261
   C     -0.217525      0.262422      1.325289
   H     -0.712156      1.232343      1.232050
   H      0.461954      0.306455      2.180058
   H     -0.975879     -0.497038      1.530789
  Cl      0.000000      0.000000      5.080000
