   12
 0018.xyz Energy -0.146503
   N      0.750223     -0.929462      0.358047
   C      0.343388      0.409042     -0.197732
   H      1.778688     -1.034541      0.342362
   H      0.338935     -1.697105     -0.198986
   H      0.430300     -1.032081      1.335726
   H      0.739637      0.462415     -1.216412
   H      0.836801      1.168909      0.416031
   C     -1.173733      0.668333     -0.219672
   H     -1.685088     -0.075293     -0.835818
   H     -1.381827      1.657423     -0.635194
   H     -1.588370      0.628319      0.790569
  Cl      0.000000      0.000000      4.020000
