   12
 0022.xyz Energy -0.110912
   N      0.406559     -0.540552     -1.047590
   C      0.142133     -0.354334      0.422580
   H      0.902238     -1.431409     -1.219939
   H      0.990243      0.229697     -1.414671
   H     -0.479759     -0.556350     -1.579500
   H      1.114160     -0.379724      0.924665
   H     -0.449107     -1.215567      0.748576
   C     -0.594645      0.946395      0.789498
   H     -0.015712      1.820107      0.480361
   H     -0.746492      1.002403      1.870269
   H     -1.573110      0.987513      0.304704
  Cl      0.000000      0.000000      4.560000
