   12
 0023.xyz Energy -0.105811
   N      0.762288     -0.206557     -0.964978
   C     -0.469093      0.235787     -0.220646
   H      0.661337     -0.026854     -1.978163
   H      0.926556     -1.218454     -0.831565
   H      1.596113      0.303500     -0.628352
   H     -1.312126     -0.316510     -0.647066
   H     -0.599348      1.301752     -0.431150
   C     -0.422321      0.012063      1.301565
   H     -0.301801     -1.048903      1.533787
   H     -1.350106      0.359306      1.762975
   H      0.408520      0.563153      1.748906
  Cl      0.000000      0.000000      4.680000
