   12
 0029.xyz Energy -0.151627
   N      0.495171      0.232408      1.120591
   C      0.343090      0.254135     -0.376873
   H      1.337068      0.758093      1.410235
   H      0.586439     -0.738071      1.464915
   H     -0.326522      0.661811      1.577943
   H      1.255680     -0.182596     -0.794024
   H      0.284667      1.306007     -0.673035
   C     -0.884334     -0.502774     -0.915284
   H     -0.840711     -1.558845     -0.637956
   H     -0.920047     -0.437287     -2.005558
   H     -1.808158     -0.075936     -0.517203
  Cl      0.000000      0.000000      4.500000
