   12
 0031.xyz Energy -0.151519
   N     -0.450104     -0.525191      1.037551
   C     -0.297928     -0.225526     -0.429774
   H     -1.195836     -1.224412      1.192480
   H     -0.696495      0.330904      1.562061
   H      0.430557     -0.900987      1.427361
   H     -1.269439      0.134998     -0.781569
   H     -0.070769     -1.175095     -0.924018
   C      0.790719      0.807697     -0.771338
   H      0.577470      1.767403     -0.294274
   H      0.835502      0.965951     -1.851714
   H      1.771702      0.462300     -0.435952
  Cl      0.000000      0.000000      4.420000
