   12
 0035.xyz Energy -0.141674
   N      1.101120     -0.106376      0.575456
   C     -0.358998     -0.334496      0.289071
   H      1.401617     -0.652679      1.400249
   H      1.284686      0.892974      0.766039
   H      1.681179     -0.393664     -0.230605
   H     -0.907627     -0.041717      1.189547
   H     -0.485204     -1.409767      0.129621
   C     -0.910053      0.435591     -0.924466
   H     -0.801896      1.513481     -0.781101
   H     -1.971354      0.214254     -1.061993
   H     -0.380855      0.150710     -1.837101
  Cl      0.000000      0.000000      4.260000
