   15
 0000.xyz Energy -0.105031
   N      0.024585      0.608007     -1.088418
   C     -0.543186      0.009734      0.170829
   H     -0.718443      1.065349     -1.643195
   H      0.462286     -0.122000     -1.675125
   H      0.743011      1.316975     -0.864885
   H     -1.314342     -0.703018     -0.137187
   H     -1.015307      0.827528      0.723889
   C      0.483636     -0.698365      1.072826
   H      0.960707     -1.525605      0.541622
   H     -0.008760     -1.101752      1.961131
   H      1.258821     -0.000792      1.399311
   O     -0.348726      0.359823      3.913897
   O      0.004111     -0.322888      6.074069
   C      0.337215     -0.036144      4.893499
   H      1.451964     -0.155597      4.673561
