   15
 0008.xyz Energy -0.121073
   N      0.666021      0.733715      0.756973
   C     -0.536782      0.029864      0.187889
   H      0.399981      1.310824      1.572569
   H      1.095826      1.353265      0.049764
   H      1.378439      0.050346      1.063902
   H     -1.258321      0.806254     -0.084454
   H     -0.957025     -0.579094      0.994193
   C     -0.249455     -0.859754     -1.034973
   H      0.162833     -0.268319     -1.856144
   H     -1.171375     -1.331819     -1.383513
   H      0.463242     -1.648404     -0.781585
   O      0.202362     -0.008082      4.337898
   O     -0.295835      0.340648      6.548580
   C      0.091464     -0.325424      5.551950
   H      0.393851     -1.401223      5.789696
