   15
 0013.xyz Energy -0.112362
   N      0.613752      0.425593      0.998554
   C     -0.245993     -0.486448      0.164876
   H      0.717018      0.054578      1.958092
   H      0.193983      1.368284      1.060568
   H      1.556786      0.518143      0.585202
   H     -1.211442     -0.564266      0.674211
   H      0.238326     -1.467763      0.168930
   C     -0.464061     -0.024308     -1.287101
   H     -0.955788      0.951194     -1.313576
   H     -1.095388     -0.739463     -1.820245
   H      0.488649      0.051317     -1.816946
   O     -0.579062     -0.522930      6.818280
   O      0.671911      0.189042      5.033597
   C     -0.090852      0.326720      6.026654
   H     -0.391249      1.406757      6.247084
