   15
 0015.xyz Energy -0.103617
   N      0.274112      0.329067     -1.171114
   C      0.481270     -0.212516      0.218048
   H      1.148329      0.271351     -1.720153
   H     -0.020939      1.319283     -1.137406
   H     -0.455298     -0.208891     -1.668407
   H      1.283162      0.378065      0.671647
   H      0.820917     -1.246782      0.106275
   C     -0.763898     -0.172839      1.122123
   H     -1.114222      0.853751      1.254352
   H     -0.528426     -0.582808      2.107385
   H     -1.574888     -0.764866      0.690950
   O     -0.711428     -0.398874      6.044733
   O      0.527118      0.168872      4.200661
   C      0.180356      0.225065      5.410423
   H      0.776516      0.969055      6.040007
