   15
 0016.xyz Energy -0.109893
   N      0.880782     -0.771526     -0.428838
   C     -0.169554      0.306615     -0.448962
   H      1.285959     -0.904838     -1.370692
   H      0.475287     -1.671504     -0.121703
   H      1.646739     -0.523886      0.219793
   H     -0.927520     -0.003487     -1.174838
   H      0.318792      1.216388     -0.811442
   C     -0.838714      0.585759      0.908856
   H     -1.340881     -0.309068      1.284639
   H     -1.584299      1.378166      0.806612
   H     -0.099144      0.906037      1.646806
   O      0.683732     -0.268007      3.902172
   O     -0.653209     -0.079147      5.755237
   C     -0.029871      0.339699      4.743830
   H     -0.128558      1.462666      4.558056
