   15
 0017.xyz Energy -0.0957974
   N      0.387159      0.487504     -1.080453
   C      0.195674      0.348014      0.406112
   H      0.943855      1.330705     -1.299838
   H     -0.524709      0.568970     -1.560638
   H      0.882318     -0.334865     -1.464204
   H     -0.301531      1.260889      0.748189
   H      1.194786      0.299574      0.849947
   C     -0.623132     -0.880280      0.842251
   H     -1.629002     -0.846512      0.416593
   H     -0.713833     -0.906475      1.930988
   H     -0.138376     -1.804301      0.517739
   O      0.209672      0.013759      4.479271
   O     -0.074347      0.311449      6.734852
   C     -0.132420     -0.318224      5.645327
   H     -0.570160     -1.370221      5.728947
