   15
 0018.xyz Energy -0.0861089
   N     -0.424639     -0.033705     -1.171954
   C     -0.232995     -0.448587      0.262321
   H     -1.060960     -0.686696     -1.659527
   H      0.478619     -0.027603     -1.674753
   H     -0.831740      0.914965     -1.227014
   H      0.167450     -1.466900      0.246403
   H     -1.226044     -0.464121      0.721855
   C      0.700757      0.460612      1.081365
   H      1.701841      0.482709      0.643825
   H      0.784227      0.090876      2.106348
   H      0.313661      1.481874      1.117304
   O     -0.173610      0.255905      5.022062
   O     -0.164774     -0.156614      7.277429
   C      0.331118     -0.097160      6.120934
   H      1.425727     -0.418334      6.057799
