   15
 0020.xyz Energy -0.105523
   N     -0.750261     -0.098844     -0.991095
   C      0.023355     -0.520746      0.229362
   H     -1.265033     -0.900487     -1.392851
   H     -0.114563      0.272742     -1.716719
   H     -1.435293      0.637982     -0.753279
   H      0.701641     -1.319392     -0.086332
   H     -0.703242     -0.930548      0.937655
   C      0.828446      0.602409      0.907389
   H      1.567272      1.019597      0.218775
   H      1.357364      0.213433      1.781005
   H      0.167627      1.407165      1.238746
   O      0.230785      0.001995      3.963273
   O     -0.004538      0.269084      6.228272
   C     -0.221390     -0.265256      5.108280
   H     -0.953248     -1.142152      5.135546
