   15
 0022.xyz Energy -0.127284
   N      1.005389      0.642026      0.363218
   C      0.193272     -0.406376     -0.349046
   H      2.009712      0.541213      0.139160
   H      0.893314      0.558136      1.387483
   H      0.705670      1.590552      0.081784
   H      0.582718     -1.378411     -0.031162
   H      0.383398     -0.279846     -1.419281
   C     -1.321594     -0.345073     -0.082986
   H     -1.533970     -0.478780      0.980555
   H     -1.834391     -1.136198     -0.635636
   H     -1.732542      0.615840     -0.402172
   O     -0.072012      1.122150      4.015383
   O     -0.246830     -1.052754      4.719772
   C      0.311995     -0.067912      4.167750
   H      1.343394     -0.292315      3.730526
