   15
 0023.xyz Energy -0.120135
   N      0.013793      0.056936      1.245592
   C     -0.431899      0.332195     -0.165645
   H     -0.581274      0.563795      1.922361
   H      0.992135      0.360061      1.385879
   H     -0.045231     -0.953222      1.457339
   H     -0.375344      1.415523     -0.309775
   H     -1.478165      0.018613     -0.233128
   C      0.391098     -0.377332     -1.255881
   H      1.438942     -0.070457     -1.211719
   H      0.003012     -0.125451     -2.245935
   H      0.340445     -1.462221     -1.135213
   O     -1.001401      0.360954      4.959216
   O      0.945058     -0.080330      6.087710
   C      0.055139     -0.274599      5.217520
   H      0.237326     -1.182347      4.548112
