   15
 0024.xyz Energy -0.115896
   N      0.838144     -0.038055      0.922495
   C     -0.509963     -0.012018      0.253222
   H      0.735246     -0.082753      1.950329
   H      1.378875      0.811542      0.689013
   H      1.382493     -0.861984      0.616613
   H     -1.040795      0.861242      0.644637
   H     -1.036156     -0.918510      0.567790
   C     -0.469804      0.054486     -1.284091
   H      0.044198      0.958567     -1.619561
   H     -1.485100      0.069143     -1.688096
   H      0.049070     -0.814472     -1.696152
   O      1.008493     -0.201687      5.796356
   O     -1.010108     -0.151245      4.710246
   C      0.001575      0.345353      5.273107
   H      0.006876      1.487017      5.316489
