   15
 0026.xyz Energy -0.143896
   N      0.365834      0.635364      1.008667
   C      0.476866     -0.129324     -0.283201
   H      1.300821      0.917853      1.347823
   H     -0.081001      0.056279      1.739226
   H     -0.202473      1.489378      0.880496
   H      1.113563     -0.996747     -0.083792
   H      0.984107      0.527685     -0.996368
   C     -0.863722     -0.598426     -0.876609
   H     -1.382824     -1.264188     -0.182784
   H     -0.694211     -1.142186     -1.809268
   H     -1.511948      0.254588     -1.091742
   O      0.133072      1.131642      4.697007
   O      0.190994     -1.088979      4.129187
   C     -0.317107     -0.041753      4.610931
   H     -1.365400     -0.179676      5.043787
