   15
 0030.xyz Energy -0.150044
   N     -0.402393      0.437734      1.096084
   C     -0.363130      0.200948     -0.389981
   H     -1.204777      1.038563      1.349488
   H      0.463317      0.904064      1.415148
   H     -0.494983     -0.456433      1.606604
   H     -0.297731      1.184386     -0.865525
   H     -1.316696     -0.262464     -0.661128
   C      0.798080     -0.685368     -0.875164
   H      1.761099     -0.235203     -0.622088
   H      0.752595     -0.806801     -1.960266
   H      0.746086     -1.676644     -0.418239
   O      0.068155      0.954633      3.844679
   O     -0.398814     -0.837498      5.196396
   C      0.323557     -0.114624      4.459811
   H      1.393192     -0.493463      4.326889
