   15
 0032.xyz Energy -0.121871
   N     -1.189801     -0.254704     -0.272818
   C      0.147668     -0.368233      0.408567
   H     -1.851073     -0.956363      0.100577
   H     -1.096028     -0.409301     -1.290671
   H     -1.597351      0.683724     -0.124517
   H      0.503433     -1.389188      0.239292
   H     -0.030322     -0.226563      1.478992
   C      1.209580      0.635441     -0.075528
   H      1.409093      0.504332     -1.141880
   H      2.145878      0.486070      0.467884
   H      0.877213      1.662695      0.092971
   O      0.196897      1.127423      3.991419
   O     -0.506154     -1.042880      4.220408
   C      0.302614     -0.082733      4.324992
   H      1.303028     -0.356132      4.804295
