   15
 0034.xyz Energy -0.107828
   N      0.734871      1.004420      0.077703
   C      0.223111     -0.323891     -0.411879
   H      1.583572      1.283565     -0.442693
   H      0.973580      0.956635      1.082418
   H      0.021007      1.741132     -0.050329
   H      1.035189     -1.044999     -0.277328
   H      0.022254     -0.210015     -1.481575
   C     -1.043047     -0.833511      0.299808
   H     -0.860790     -0.963054      1.369434
   H     -1.346482     -1.798313     -0.114132
   H     -1.869939     -0.131028      0.169890
   O     -0.988577     -0.402168      4.585698
   O      0.921590      0.665991      5.269239
   C      0.065553     -0.258155      5.260232
   H      0.282170     -1.111610      5.988240
