   15
 0044.xyz Energy -0.203479
   N      0.265000      0.661000      0.433000
   C     -0.578000     -0.505000      0.646000
   H     -0.268000      1.563000      0.554000
   H      0.795000      0.742000     -0.431000
   H      0.941000      0.817000      1.228000
   H     -1.306000     -0.535000     -0.169000
   H     -1.100000     -0.366000      1.597000
   C      0.283000     -1.749000      0.667000
   H      0.826000     -1.870000     -0.277000
   H     -0.339000     -2.637000      0.817000
   H      1.016000     -1.708000      1.479000
   O      1.338800      1.733200      2.232400
   O     -0.368200      2.796200      1.291400
   C      0.559800      2.729200      2.149400
   H      0.698800      3.583200      2.863400
