   12
 0000.xyz Energy 0.124971
   N     -0.303862      0.629162      1.032838
   C     -0.451452      0.040609     -0.344777
   H     -1.158072      1.145033      1.303452
   H      0.493890      1.285803      1.066499
   H     -0.140560     -0.114122      1.732551
   H     -0.652956      0.873850     -1.024980
   H     -1.327397     -0.614713     -0.315929
   C      0.769561     -0.751361     -0.846053
   H      1.654415     -0.111754     -0.891182
   H      0.579988     -1.143123     -1.848473
   H      0.982667     -1.594675     -0.184603
  Na      0.000000      0.000000      4.860000
