   12
 0004.xyz Energy 0.0992963
   N     -0.630305     -0.233633      1.050268
   C     -0.140361     -0.417338     -0.361187
   H     -1.286763     -0.988826      1.310603
   H     -1.121548      0.670254      1.152184
   H      0.159904     -0.249093      1.716653
   H     -1.025215     -0.423495     -1.005055
   H      0.337443     -1.400918     -0.404012
   C      0.846592      0.657840     -0.850354
   H      0.385193      1.648055     -0.824210
   H      1.151704      0.450401     -1.879012
   H      1.742722      0.674460     -0.225226
  Na      0.000000      0.000000      6.000000
