   12
 0008.xyz Energy 0.117233
   N     -0.233067      1.146035      0.432683
   C      0.558897     -0.014118     -0.108462
   H      0.379853      1.962473      0.596345
   H     -0.682875      0.895421      1.329112
   H     -0.972737      1.426186     -0.233006
   H      1.338882     -0.235168      0.626610
   H      1.030032      0.329761     -1.034388
   C     -0.262118     -1.285734     -0.388273
   H     -0.734185     -1.651403      0.526898
   H      0.385466     -2.075342     -0.777395
   H     -1.042099     -1.088521     -1.127765
  Na      0.000000      0.000000      4.560000
