   12
 0011.xyz Energy 0.0977267
   N      0.247979     -1.203223      0.213759
   C     -0.517132      0.011804     -0.238252
   H     -0.295528     -2.064605      0.035857
   H      0.449920     -1.152495      1.226362
   H      1.146597     -1.278557     -0.291760
   H     -1.464422      0.011207      0.309663
   H     -0.722967     -0.123353     -1.304519
   C      0.205878      1.352726     -0.017905
   H      0.412769      1.511634      1.043248
   H     -0.415083      2.179254     -0.372192
   H      1.151641      1.377495     -0.564742
  Na      0.000000      0.000000      5.340000
