   12
 0014.xyz Energy 0.111228
   N      1.085436      0.592626      0.159853
   C     -0.347030      0.200133      0.404779
   H      1.391263      1.305336      0.843625
   H      1.199696      0.986115     -0.789268
   H      1.709330     -0.227036      0.247305
   H     -0.943121      1.114756      0.329225
   H     -0.400393     -0.175333      1.431296
   C     -0.903548     -0.860172     -0.562386
   H     -0.867805     -0.500760     -1.593718
   H     -1.943682     -1.087338     -0.315854
   H     -0.326918     -1.786020     -0.495945
  Na      0.000000      0.000000      4.540000
