   12
 0016.xyz Energy 0.0892944
   N     -0.371621     -0.654238     -0.994385
   C     -0.240560     -0.252282      0.450348
   H     -0.979859     -1.484973     -1.089012
   H      0.553082     -0.884027     -1.395433
   H     -0.784086      0.112759     -1.551454
   H      0.169028     -1.115914      0.983216
   H     -1.252950     -0.055901      0.816491
   C      0.647786      0.979121      0.703042
   H      1.667165      0.800073      0.352458
   H      0.688653      1.202319      1.772048
   H      0.250615      1.856139      0.186123
  Na      0.000000      0.000000      5.220000
