   12
 0017.xyz Energy 0.0816669
   N     -0.593724     -0.126983     -1.089173
   C     -0.361712     -0.189771      0.396837
   H     -1.533706     -0.485408     -1.327910
   H      0.106407     -0.696743     -1.593067
   H     -0.523684      0.846684     -1.429474
   H     -0.482064     -1.236660      0.691979
   H     -1.152066      0.404848      0.865163
   C      1.013610      0.322606      0.860867
   H      1.817880     -0.264732      0.411109
   H      1.099285      0.243094      1.947421
   H      1.150501      1.370649      0.583415
  Na      0.000000      0.000000      5.780000
