   12
 0018.xyz Energy 0.098404
   N     -1.156839      0.409662      0.220980
   C      0.173665      0.271623     -0.469457
   H     -1.757646      1.089028     -0.275529
   H     -1.032121      0.739212      1.192865
   H     -1.650675     -0.498148      0.248263
   H      0.623816      1.268846     -0.491356
   H     -0.034620     -0.047127     -1.495408
   C      1.147739     -0.720105      0.191620
   H      1.376423     -0.414434      1.215519
   H      2.084404     -0.760537     -0.369882
   H      0.720324     -1.725520      0.215446
  Na      0.000000      0.000000      5.280000
