   12
 0019.xyz Energy 0.0792505
   N     -1.030318     -0.521379     -0.470680
   C      0.001469      0.537606     -0.187899
   H     -1.779967     -0.148658     -1.077420
   H     -1.461954     -0.855207      0.407368
   H     -0.601406     -1.331582     -0.948534
   H     -0.523800      1.372850      0.285421
   H      0.390951      0.865551     -1.156566
   C      1.166453      0.084732      0.710479
   H      0.799286     -0.238543      1.687608
   H      1.867006      0.909180      0.864668
   H      1.710516     -0.744168      0.251099
  Na      0.000000      0.000000      6.180000
