   12
 0021.xyz Energy 0.0914386
   N     -0.050224      0.518597     -1.132901
   C      0.377002      0.308374      0.295133
   H      0.441365      1.328945     -1.546066
   H     -1.067227      0.695728     -1.188119
   H      0.164313     -0.315073     -1.705358
   H      0.151747      1.234700      0.832488
   H      1.461100      0.159679      0.281700
   C     -0.298113     -0.878194      1.006220
   H     -1.382184     -0.744647      1.038677
   H      0.066672     -0.960246      2.033089
   H     -0.077915     -1.815696      0.489776
  Na      0.000000      0.000000      5.020000
