   12
 0029.xyz Energy 0.116609
   N      0.003170     -1.099490      0.588253
   C     -0.545430      0.108758     -0.122501
   H     -0.758632     -1.749395      0.845761
   H      0.496889     -0.822215      1.453169
   H      0.670368     -1.607750     -0.016111
   H     -1.263596      0.577029      0.557595
   H     -1.078620     -0.258906     -1.004596
   C      0.510025      1.143860     -0.551391
   H      1.048403      1.531031      0.317141
   H      0.030150      1.984701     -1.058311
   H      1.232888      0.698132     -1.239073
  Na      0.000000      0.000000      4.740000
