    2
 0003.xyz Energy -0.206759
  Li      0.000000      0.000000      1.999000
  Br     -0.000000     -0.000000     -0.773811
