    2
 0004.xyz Energy -0.204746
  Li      0.000000      0.000000      1.999000
  Br     -0.000000     -0.000000     -0.808184
