    2
 0005.xyz Energy -0.205419
  Li      0.000000      0.000000      1.999000
  Br      0.000000      0.000000     -0.796726
