    2
 0009.xyz Energy -0.228917
  Li      0.000000      0.000000      1.999000
  Br      0.000000      0.000000     -0.292579
