    2
 0011.xyz Energy -0.184233
  Li      0.000000      0.000000      1.999000
  Br      0.000000      0.000000      0.234484
