    2
 0013.xyz Energy -0.215817
  Li      0.000000      0.000000      1.999000
  Br     -0.000000     -0.000000     -0.613400
