    2
 0017.xyz Energy -0.203872
  Li      0.000000      0.000000      1.999000
  Br     -0.000000     -0.000000     -0.823037
