    2
 0021.xyz Energy -0.206945
  Li      0.000000      0.000000      1.999000
  Br      0.000000      0.000000     -0.770628
