    2
 0026.xyz Energy -0.206116
  Li      0.000000      0.000000      1.999000
  Br      0.000000      0.000000      0.136456
