    2
 0027.xyz Energy -0.0868928
  Li      0.000000      0.000000      1.999000
  Br      0.000000      0.000000      0.450911
