    2
 0029.xyz Energy -0.178182
  Li      0.000000      0.000000      1.999000
  Br     -0.000000     -0.000000     -1.266500
