    2
 0034.xyz Energy -0.211309
  Li      0.000000      0.000000      1.999000
  Br      0.000000      0.000000      3.893796
