    2
 0035.xyz Energy -0.218361
  Li      0.000000      0.000000      1.999000
  Br      0.000000      0.000000      4.563022
