    2
 0037.xyz Energy -0.141698
  Li      0.000000      0.000000      1.999000
  Br      0.000000      0.000000      6.034513
