    2
 0038.xyz Energy -0.115234
  Li      0.000000      0.000000      1.999000
  Br      0.000000      0.000000      6.836778
