    2
 0041.xyz Energy -0.0712277
  Li      0.000000      0.000000      1.999000
  Br      0.000000      0.000000      9.509650
