    2
 0047.xyz Energy -0.0376948
  Li      0.000000      0.000000      1.999000
  Br      0.000000      0.000000     16.052744
