    2
 0049.xyz Energy -0.0319191
  Li      0.000000      0.000000      1.999000
  Br      0.000000      0.000000     18.588546
