    2
 0052.xyz Energy -0.0639581
  Li      0.000000      0.000000      1.999000
  Br      0.000000      0.000000     22.724846
