    2
 0053.xyz Energy 1.06153
  Li      0.000000      0.000000      1.999000
  Br      0.000000      0.000000      1.019350
