    2
 0055.xyz Energy 4.34729
  Li      0.000000      0.000000      1.999000
  Br      0.000000      0.000000      2.652100
