    2
 0056.xyz Energy -0.135206
  Li      0.000000      0.000000      1.999000
  Br      0.000000      0.000000      3.631750
