    2
 0057.xyz Energy -0.209745
  Li      0.000000      0.000000      1.999000
  Br      0.000000      0.000000      4.720250
