    2
 0060.xyz Energy -0.105592
  Li      0.000000      0.000000      1.999000
  Br      0.000000      0.000000      7.223800
