    2
 0062.xyz Energy -0.0653487
  Li      0.000000      0.000000      1.999000
  Br      0.000000      0.000000     10.162750
