    2
 0063.xyz Energy -0.0542364
  Li      0.000000      0.000000      1.999000
  Br      0.000000      0.000000     11.795500
