    2
 0066.xyz Energy -0.0345075
  Li      0.000000      0.000000      1.999000
  Br      0.000000      0.000000     17.346850
