    2
 0068.xyz Energy -0.0608089
  Li      0.000000      0.000000      1.999000
  Br      0.000000      0.000000     21.592000
