    2
 0091.xyz Energy -0.213387
  Li      0.000000      0.000000      1.999000
  Br     -0.000000     -0.000000     -0.657829
