    2
 0093.xyz Energy -0.211643
  Li      0.000000      0.000000      1.999000
  Br      0.000000      0.000000     -0.688929
