    2
 0098.xyz Energy -0.181516
  Li      0.000000      0.000000      1.999000
  Br      0.000000      0.000000      0.244071
