    2
 0103.xyz Energy 5.09691
  Li      0.000000      0.000000      1.999000
  Br      0.000000      0.000000      2.621000
