    2
 0104.xyz Energy 0.23016
  Li      0.000000      0.000000      1.999000
  Br      0.000000      0.000000      3.269657
