    2
 0105.xyz Energy -0.221036
  Li      0.000000      0.000000      1.999000
  Br      0.000000      0.000000      3.976071
