    2
 0106.xyz Energy -0.208593
  Li      0.000000      0.000000      1.999000
  Br      0.000000      0.000000      4.740243
