    2
 0110.xyz Energy -0.0847338
  Li      0.000000      0.000000      1.999000
  Br      0.000000      0.000000      8.374500
