    2
 0113.xyz Energy -0.221344
  Li      0.000000      0.000000      1.999000
  Br     -0.000000     -0.000000     -0.504550
