    2
 0114.xyz Energy -0.0485141
  Li      0.000000      0.000000      1.999000
  Br      0.000000      0.000000     12.932871
