    2
 0115.xyz Energy -0.0433849
  Li      0.000000      0.000000      1.999000
  Br      0.000000      0.000000     14.216857
