    2
 0116.xyz Energy -0.0390735
  Li      0.000000      0.000000      1.999000
  Br      0.000000      0.000000     15.558600
