    2
 0117.xyz Energy -0.0354067
  Li      0.000000      0.000000      1.999000
  Br      0.000000      0.000000     16.958100
