    2
 0118.xyz Energy -0.0322565
  Li      0.000000      0.000000      1.999000
  Br      0.000000      0.000000     18.415357
