    2
 0119.xyz Energy -0.0295265
  Li      0.000000      0.000000      1.999000
  Br      0.000000      0.000000     19.930371
