    2
 0120.xyz Energy 67.9924
  Li      0.000000      0.000000      1.999000
  Br      0.000000      0.000000      1.781300
