    2
 0121.xyz Energy 7.77274
  Li      0.000000      0.000000      1.999000
  Br      0.000000      0.000000      2.543250
