    2
 0124.xyz Energy -0.16664
  Li      0.000000      0.000000      1.999000
  Br      0.000000      0.000000      5.482200
