    2
 0125.xyz Energy -0.119664
  Li      0.000000      0.000000      1.999000
  Br      0.000000      0.000000      6.679550
