    2
 0126.xyz Energy -0.0907375
  Li      0.000000      0.000000      1.999000
  Br      0.000000      0.000000      7.985750
