    2
 0127.xyz Energy -0.0723204
  Li      0.000000      0.000000      1.999000
  Br      0.000000      0.000000      9.400800
