    2
 0132.xyz Energy -0.0328717
  Li      0.000000      0.000000      1.999000
  Br      0.000000      0.000000     18.108800
