    9
 0002.xyz Energy -0.182847
   N      0.157000      0.487000      0.644000
   C     -0.070000     -0.200000     -0.624000
   H     -0.473000      1.268000      0.843000
   H      1.125000      0.757000      0.833000
   H     -0.051000     -0.177000      1.447000
   H      0.150000      0.502000     -1.430000
   H     -1.115000     -0.514000     -0.658000
   H      0.598000     -1.062000     -0.669000
  Br     -0.333000     -1.090000      3.140000
