    9
 0022.xyz Energy -0.149161
   N     -0.018053      0.251291      0.640236
   C      0.020665     -0.287638     -0.732877
   H     -0.454820      1.182067      0.665325
   H      0.927815      0.342617      1.033775
   H     -0.556593     -0.360302      1.267808
   H      0.603121      0.402456     -1.346147
   H     -1.007595     -0.360196     -1.092290
   H      0.492710     -1.271157     -0.692401
  Br      0.000000      0.000000      4.260000
