    9
 0023.xyz Energy -0.117394
   N     -0.035736      0.117131     -0.677036
   C      0.040913     -0.134067      0.774999
   H      0.691763      0.776986     -0.982119
   H     -0.946104      0.516626     -0.940693
   H      0.088636     -0.750901     -1.214596
   H     -0.097863      0.820111      1.286732
   H      1.024972     -0.555185      0.989591
   H     -0.752330     -0.837778      1.034480
  Br      0.000000      0.000000      4.400000
