    9
 0025.xyz Energy -0.136177
   N      0.195655      0.222255      0.621045
   C     -0.223965     -0.254426     -0.710899
   H      0.605735     -0.538080      1.179134
   H     -0.600106      0.600905      1.151391
   H      0.900997      0.967229      0.547380
   H     -0.968635     -1.039203     -0.565369
   H      0.660171     -0.641825     -1.220788
   H     -0.648270      0.594198     -1.250878
  Br      0.000000      0.000000      4.600000
