    9
 0026.xyz Energy -0.127069
   N     -0.203049     -0.111133      0.647916
   C      0.232430      0.127199     -0.741665
   H      0.128608     -1.021166      0.993721
   H     -1.228648     -0.105770      0.725364
   H      0.159042      0.612059      1.283371
   H     -0.181935     -0.669170     -1.362699
   H      1.323856      0.109643     -0.757279
   H     -0.148932      1.103029     -1.048412
  Br      0.000000      0.000000      4.900000
