    9
 0028.xyz Energy -0.146517
   N     -0.334024     -0.438186      0.412062
   C      0.382343      0.501592     -0.471689
   H     -1.276032     -0.644636      0.054659
   H     -0.440122     -0.054053      1.360253
   H      0.168382     -1.331877      0.494676
   H     -0.198023      1.424978     -0.517749
   H      0.462193      0.038498     -1.457046
   H      1.369300      0.679276     -0.040277
  Br      0.000000      0.000000      4.240000
