    9
 0031.xyz Energy -0.136329
   N      0.215387      0.632457      0.164260
   C     -0.246563     -0.723963     -0.188031
   H     -0.576895      1.265962      0.333665
   H      0.783661      1.042173     -0.588785
   H      0.791465      0.622645      1.016291
   H     -0.848807     -0.646514     -1.095164
   H     -0.840448     -1.101750      0.646438
   H      0.635997     -1.344573     -0.354473
  Br      0.000000      0.000000      4.220000
