    9
 0034.xyz Energy -0.158973
   N      0.429534      0.307088      0.441103
   C     -0.491676     -0.351517     -0.504937
   H      1.012547      1.010224     -0.031585
   H      1.062106     -0.372924      0.883049
   H     -0.084228      0.785677      1.192715
   H      0.111132     -0.838395     -1.273806
   H     -1.132712      0.418789     -0.937905
   H     -1.078961     -1.082070      0.054673
  Br      0.000000      0.000000      3.840000
