    9
 0037.xyz Energy -0.136486
   N      0.501665      0.469141     -0.040174
   C     -0.574245     -0.537029      0.045977
   H      0.975666      0.433788     -0.952210
   H      1.214927      0.318137      0.685315
   H      0.134105      1.422122      0.080853
   H     -0.122441     -1.521457     -0.089523
   H     -1.295221     -0.323632     -0.745488
   H     -1.035603     -0.449038      1.031461
  Br      0.000000      0.000000      4.040000
