    9
 0039.xyz Energy -0.139501
   N      0.042313      0.027221      0.686180
   C     -0.048428     -0.031148     -0.785465
   H      0.275441      0.975140      1.009968
   H      0.768010     -0.608663      1.042404
   H     -0.847396     -0.240463      1.127408
   H      0.921393      0.262108     -1.191710
   H     -0.831406      0.661719     -1.099536
   H     -0.296971     -1.056947     -1.064280
  Br      0.000000      0.000000      4.540000
