    9
 0043.xyz Energy -0.149617
   N     -0.520816      0.447614      0.042047
   C      0.596177     -0.512376     -0.048118
   H     -0.346216      1.158993      0.763983
   H     -1.402782     -0.024944      0.280173
   H     -0.664536      0.940136     -0.849405
   H      0.697058     -0.999520      0.923531
   H      1.498190      0.047663     -0.302066
   H      0.351642     -1.237018     -0.827137
  Br      0.000000      0.000000      3.720000
