    9
 0044.xyz Energy -0.135275
   N      0.461253     -0.082851      0.503742
   C     -0.527982      0.094842     -0.576637
   H      1.336906      0.414814      0.295657
   H      0.694128     -1.075491      0.639079
   H      0.106338      0.276665      1.399679
   H     -0.094198     -0.304037     -1.495502
   H     -0.731961      1.163197     -0.670293
   H     -1.429478     -0.453963     -0.297544
  Br      0.000000      0.000000      4.600000
