    9
 0045.xyz Energy -0.123742
   N     -0.344738      0.496311     -0.328948
   C      0.394611     -0.568119      0.376555
   H     -0.720147      1.191479      0.329495
   H     -1.137914      0.113008     -0.859825
   H      0.260563      0.995367     -0.994134
   H     -0.298571     -1.057205      1.063491
   H      1.218873     -0.099787      0.917867
   H      0.765577     -1.270021     -0.372773
  Br      0.000000      0.000000      4.240000
