    9
 0047.xyz Energy -0.126461
   N      0.191052      0.140244      0.645915
   C     -0.218687     -0.160526     -0.739377
   H      0.552621      1.099384      0.729908
   H      0.931390     -0.498572      0.964808
   H     -0.598705      0.048958      1.298502
   H      0.658394     -0.046722     -1.379193
   H     -1.001845      0.547459     -1.017193
   H     -0.590886     -1.186547     -0.762221
  Br      0.000000      0.000000      4.920000
