    9
 0049.xyz Energy -0.131592
   N     -0.074400     -0.644528     -0.228961
   C      0.085153      0.737784      0.262097
   H     -1.060123     -0.937355     -0.210492
   H      0.457101     -1.310541      0.347071
   H      0.258381     -0.738868     -1.197608
   H     -0.283719      0.772045      1.288910
   H     -0.499431      1.392403     -0.387131
   H      1.146990      0.987417      0.217816
  Br      0.000000      0.000000      4.080000
