    9
 0050.xyz Energy -0.145173
   N     -0.026551     -0.302669      0.617302
   C      0.030395      0.346474     -0.706614
   H     -0.231311      0.378482      1.360165
   H      0.866485     -0.756279      0.850977
   H     -0.758182     -1.024891      0.649392
   H      0.821448      1.098072     -0.676240
   H     -0.941435      0.806719     -0.894982
   H      0.249766     -0.424720     -1.447498
  Br      0.000000      0.000000      4.380000
