    9
 0051.xyz Energy -0.146931
   N      0.195217      0.224683      0.620309
   C     -0.223451     -0.257188     -0.710067
   H      0.917524      0.952915      0.544889
   H      0.583509     -0.538445      1.190173
   H     -0.596477      0.626630      1.139518
   H      0.656146     -0.669619     -1.207858
   H     -0.624167      0.594603     -1.262913
   H     -0.986677     -1.023688     -0.562630
  Br      0.000000      0.000000      4.300000
