    9
 0054.xyz Energy -0.131111
   N     -0.110298     -0.122269      0.668027
   C      0.126244      0.139957     -0.764687
   H     -0.949191     -0.700124      0.809731
   H     -0.245058      0.752559      1.191855
   H      0.683230     -0.618958      1.094093
   H     -0.746359      0.666000     -1.156387
   H      0.260822     -0.822223     -1.262540
   H      1.024964      0.754094     -0.847828
  Br      0.000000      0.000000      4.780000
