    9
 0057.xyz Energy 0.624736
   N     -0.759000      0.052000     -0.643000
   C      0.481000     -0.025000      0.124000
   H     -0.867000     -0.649000     -1.379000
   H     -1.002000      0.979000     -1.000000
   H     -1.581000     -0.165000     -0.006000
   H      1.308000      0.200000     -0.553000
   H      0.572000     -1.036000      0.524000
   H      0.429000      0.711000      0.929000
  Br     -2.336600     -0.316600      0.366400
