    5
 0000.xyz Energy 0.152938
   O      1.024880     -0.476145      0.261382
   O     -1.133727      0.244460     -0.018036
   C      0.106504      0.226712     -0.238121
   H      0.458685      0.976142     -1.025287
  Cl      0.000000      0.000000      2.980000
