    5
 0001.xyz Energy 0.122117
   O     -0.168380     -0.132920      1.139910
   O     -0.076192     -0.121646     -1.151009
   C      0.239320      0.249100      0.010854
   H      1.030460      1.072574      0.046842
  Cl      0.000000      0.000000      4.360000
