    5
 0002.xyz Energy 0.116208
   O     -0.455803      0.558483      0.908710
   O      0.114709     -0.580428     -0.997682
   C      0.333771      0.021470      0.087056
   H      1.437124      0.092501      0.374934
  Cl      0.000000      0.000000      4.340000
