    5
 0003.xyz Energy 0.109588
   O      0.253794     -0.446269     -1.040118
   O      0.098334      0.443360      1.067327
   C     -0.344567      0.002850     -0.026618
   H     -1.483627      0.012228     -0.114711
  Cl      0.000000      0.000000      4.820000
