    5
 0004.xyz Energy 0.103862
   O      0.336451      0.180313     -1.095309
   O     -0.299256      0.170698      1.107579
   C     -0.036399     -0.343474     -0.012001
   H     -0.156695     -1.478926     -0.051776
  Cl      0.000000      0.000000      5.140000
