    5
 0005.xyz Energy 0.0986842
   O     -0.122168      0.293271      1.115563
   O      0.123853      0.058047     -1.151831
   C     -0.001649     -0.343775      0.035483
   H     -0.007110     -1.480213      0.152888
  Cl      0.000000      0.000000      5.420000
