    5
 0006.xyz Energy 0.09428
   O     -0.174518      0.229476     -1.123520
   O     -0.046866      0.043530      1.158159
   C      0.216631     -0.267143     -0.033888
   H      0.932763     -1.150255     -0.146023
  Cl      0.000000      0.000000      5.740000
