    5
 0007.xyz Energy 0.130897
   O      0.030709      0.230548     -1.136362
   O      0.261919     -0.032901      1.129487
   C     -0.286343     -0.193404      0.006734
   H     -1.232946     -0.832747      0.028890
  Cl      0.000000      0.000000      4.080000
