    5
 0008.xyz Energy 0.123583
   O      0.489804      0.414427      0.966311
   O     -0.582197     -0.075246     -1.000404
   C      0.090407     -0.331899      0.033355
   H      0.389323     -1.429066      0.143714
  Cl      0.000000      0.000000      4.120000
