    5
 0009.xyz Energy 0.115521
   O     -0.329849     -0.214744     -1.091100
   O     -0.019809      0.238283      1.135012
   C      0.342150     -0.023033     -0.042963
   H      1.473213     -0.099197     -0.185094
  Cl      0.000000      0.000000      4.620000
