    5
 0010.xyz Energy 0.124885
   O      0.955807     -0.656915     -0.017598
   O     -1.065509      0.396679      0.229697
   C      0.107340      0.254650     -0.207544
   H      0.462279      1.096422     -0.893651
  Cl      0.000000      0.000000      3.820000
