    5
 0011.xyz Energy 0.104617
   O      0.280839      0.143625      1.116206
   O     -0.286155     -0.482094     -1.015443
   C      0.005200      0.331199     -0.098605
   H      0.022418      1.426106     -0.424473
  Cl      0.000000      0.000000      5.140000
