    5
 0012.xyz Energy 0.099953
   O     -0.064752      0.602895     -0.988807
   O      0.402031     -0.629500      0.887426
   C     -0.330035      0.026030      0.099209
   H     -1.421084      0.112137      0.427085
  Cl      0.000000      0.000000      5.140000
