    5
 0013.xyz Energy 0.0946955
   O     -0.513392      0.126365     -1.032412
   O      0.285827      0.130292      1.116580
   C      0.222681     -0.251145     -0.082355
   H      0.958782     -1.081379     -0.354703
  Cl      0.000000      0.000000      5.700000
