    5
 0014.xyz Energy 0.156484
   O     -0.468513     -1.047394      0.169928
   O      0.686950      0.931018      0.082034
   C     -0.213743      0.113883     -0.246552
   H     -0.920387      0.490262     -1.061596
  Cl      0.000000      0.000000      2.900000
