    5
 0015.xyz Energy 0.1223
   O      0.266625     -0.211032     -1.108959
   O     -0.421417     -0.104671      1.075582
   C      0.151466      0.308924      0.032667
   H      0.652212      1.330158      0.140555
  Cl      0.000000      0.000000      4.280000
