    5
 0016.xyz Energy 0.125511
   O     -0.811582     -0.045504     -0.827452
   O      0.912174      0.326089      0.637988
   C     -0.098426     -0.274558      0.185400
   H     -0.423885     -1.182208      0.798225
  Cl      0.000000      0.000000      3.700000
