    5
 0017.xyz Energy 0.115686
   O      0.927049     -0.470774     -0.514165
   O     -0.978263      0.134316      0.608592
   C      0.050108      0.329234     -0.092396
   H      0.215846      1.417586     -0.397893
  Cl      0.000000      0.000000      4.240000
