    5
 0018.xyz Energy 0.115733
   O      1.036160      0.157719      0.496902
   O     -1.144573     -0.031202     -0.185481
   C      0.106079     -0.123800     -0.304735
   H      0.456856     -0.533050     -1.312097
  Cl      0.000000      0.000000      4.400000
