    5
 0019.xyz Energy 0.0997836
   O      0.458913     -0.315392     -1.017517
   O     -0.718355      0.103926      0.904759
   C      0.253868      0.206926      0.110342
   H      1.093159      0.890963      0.475020
  Cl      0.000000      0.000000      5.160000
