    5
 0020.xyz Energy 0.0972707
   O      0.487279      0.746773     -0.741824
   O     -0.147940     -0.819239      0.807703
   C     -0.332055      0.070906     -0.064460
   H     -1.429729      0.305378     -0.277626
  Cl      0.000000      0.000000      5.320000
