    5
 0021.xyz Energy 0.11984
   O     -0.243007     -0.842961     -0.758801
   O      0.368397      0.996131      0.466296
   C     -0.122695     -0.149876      0.286227
   H     -0.528329     -0.645420      1.232379
  Cl      0.000000      0.000000      3.760000
