    5
 0022.xyz Energy 0.119195
   O      0.570919      0.831253     -0.573135
   O     -0.815418     -0.756254      0.329540
   C      0.239244     -0.073392      0.238367
   H      1.030202     -0.315938      1.026316
  Cl      0.000000      0.000000      3.720000
