    5
 0023.xyz Energy 0.119177
   O     -0.881170     -0.218514     -0.721945
   O      0.754877     -0.072230      0.877706
   C      0.123586      0.284500     -0.152411
   H      0.532058      1.224993     -0.656326
  Cl      0.000000      0.000000      4.300000
