    5
 0024.xyz Energy 0.109959
   O     -0.258176      0.490787     -1.018767
   O      0.125042     -0.186168      1.138038
   C      0.130277     -0.298079     -0.116703
   H      0.560926     -1.283437     -0.502601
  Cl      0.000000      0.000000      4.900000
