    5
 0025.xyz Energy 0.104235
   O      0.397851      0.216657      1.067796
   O     -0.110428     -0.421794     -1.074858
   C     -0.281253      0.200729      0.006904
   H     -1.210992      0.864330      0.029829
  Cl      0.000000      0.000000      5.080000
