    5
 0026.xyz Energy 0.0880469
   O     -0.944207      0.671335     -0.056532
   O      0.935491     -0.620112     -0.292815
   C      0.008534     -0.050126      0.341844
   H      0.036658     -0.215773      1.471922
  Cl      0.000000      0.000000      5.360000
