    5
 0027.xyz Energy 0.096374
   O     -0.299193     -0.718313     -0.860188
   O      0.334797      0.411511      1.031501
   C     -0.034838      0.300217     -0.167628
   H     -0.150033      1.292619     -0.721861
  Cl      0.000000      0.000000      5.580000
