    5
 0028.xyz Energy 0.131664
   O     -0.268310      0.524579      0.999120
   O     -0.063510     -0.430503     -1.075201
   C      0.324694     -0.092059      0.074442
   H      1.398058     -0.396343      0.320628
  Cl      0.000000      0.000000      3.900000
