    5
 0029.xyz Energy 0.116021
   O     -0.379304     -1.034718      0.361800
   O      0.158876      0.962152     -0.628049
   C      0.215697      0.071014      0.260528
   H      0.928721      0.305676      1.121827
  Cl      0.000000      0.000000      3.860000
