    5
 0030.xyz Energy 0.115889
   O     -0.406054      0.561862      0.929970
   O      0.124219     -0.409129     -1.078242
   C      0.275784     -0.149456      0.145083
   H      1.187445     -0.643482      0.624790
  Cl      0.000000      0.000000      4.360000
