    5
 0031.xyz Energy 0.124117
   O      0.829330      0.802743     -0.115018
   O     -1.031361     -0.530534      0.015880
   C      0.197687     -0.266368      0.097010
   H      0.851288     -1.146863      0.417698
  Cl      0.000000      0.000000      3.500000
