    5
 0032.xyz Energy 0.103625
   O      0.147781      0.070088     -1.148330
   O      0.193578      0.020427      1.143475
   C     -0.334029     -0.088571      0.004758
   H     -1.438263     -0.381368      0.020379
  Cl      0.000000      0.000000      5.180000
