    5
 0033.xyz Energy 0.0987339
   O      0.083550      0.119168      1.150753
   O      0.029668      0.215191     -1.139402
   C     -0.110786     -0.327179     -0.011114
   H     -0.477021     -1.408768     -0.047746
  Cl      0.000000      0.000000      5.460000
