    5
 0034.xyz Energy 0.0946642
   O     -0.157927     -0.176448      1.135491
   O      0.061626      0.503467     -1.043143
   C      0.094233     -0.319994     -0.090371
   H      0.405739     -1.377861     -0.389016
  Cl      0.000000      0.000000      5.720000
