    9
 0003.xyz Energy 0.0956898
   N     -0.040091     -0.377147      0.574045
   C      0.045893      0.431705     -0.657112
   H      0.368033     -1.311308      0.437977
   H     -1.016572     -0.506221      0.870194
   H      0.462694      0.069923      1.352027
   H     -0.503912     -0.093177     -1.440566
   H      1.101231      0.531933     -0.917838
   H     -0.401219      1.405587     -0.448742
   K      0.000000      0.000000      5.880000
