    9
 0004.xyz Energy 0.0921497
   N     -0.145786      0.522066      0.423755
   C      0.166891     -0.597607     -0.485062
   H      0.698881      0.865928      0.899186
   H     -0.816288      0.238842      1.150454
   H     -0.558295      1.314483     -0.085981
   H      0.599009     -1.402251      0.112774
   H      0.879052     -0.235150     -1.228845
   H     -0.765153     -0.915544     -0.956212
   K      0.000000      0.000000      5.960000
