    9
 0006.xyz Energy 0.0729327
   N      0.045575      0.157286     -0.668251
   C     -0.052180     -0.180036      0.764942
   H     -0.382463      1.070802     -0.868278
   H     -0.432005     -0.542547     -1.251371
   H      1.025722      0.200498     -0.977060
   H     -1.110826     -0.210362      1.029394
   H      0.470851      0.595959      1.327110
   H      0.417171     -1.154739      0.911355
   K      0.000000      0.000000      6.820000
