    9
 0007.xyz Energy 0.126921
   N     -0.016382     -0.034884      0.686942
   C      0.018764      0.039923     -0.786337
   H      0.909586     -0.261565      1.072864
   H     -0.671865     -0.758715      1.009885
   H     -0.313766      0.858653      1.100553
   H      0.339638     -0.933266     -1.162540
   H      0.728293      0.821662     -1.064213
   H     -0.987824      0.282257     -1.132500
   K      0.000000      0.000000      4.540000
