    9
 0008.xyz Energy 0.110669
   N      0.654885     -0.200707     -0.064938
   C     -0.749639      0.229757      0.074325
   H      1.246694      0.561038     -0.421652
   H      0.741625     -0.991288     -0.717116
   H      1.046399     -0.499948      0.837886
   H     -1.105269      0.533177     -0.912108
   H     -0.774600      1.066415      0.775139
   H     -1.322617     -0.618103      0.454591
   K      0.000000      0.000000      4.560000
