    9
 0009.xyz Energy 0.0901726
   N     -0.030965     -0.118513     -0.677031
   C      0.035454      0.135650      0.774992
   H      0.263377     -1.077592     -0.903453
   H      0.580161      0.523921     -1.198264
   H     -0.987069      0.004604     -1.035676
   H      1.069566     -0.010394      1.092593
   H     -0.630943     -0.573965      1.269079
   H     -0.287266      1.163904      0.949119
   K      0.000000      0.000000      5.400000
