    9
 0012.xyz Energy 0.0748536
   N      0.435799     -0.266248     -0.461049
   C     -0.498855      0.304760      0.527765
   H      0.424079     -1.294379     -0.437655
   H      1.402270      0.036359     -0.281485
   H      0.193190      0.024343     -1.417405
   H     -0.189553     -0.038609      1.516713
   H     -1.501541     -0.051715      0.284233
   H     -0.440075      1.392335      0.453607
   K      0.000000      0.000000      6.720000
