    9
 0013.xyz Energy 0.077718
   N     -0.664538      0.140962     -0.109061
   C      0.760693     -0.161351      0.124830
   H     -0.845305      0.351791     -1.099319
   H     -0.970324      0.954279      0.441294
   H     -1.263876     -0.652865      0.152764
   H      1.340771      0.714862     -0.170716
   H      1.022320     -1.028988     -0.483874
   H      0.886589     -0.375265      1.187922
   K      0.000000      0.000000      6.640000
