    9
 0018.xyz Energy 0.0902325
   N      0.442509     -0.018489      0.526515
   C     -0.506526      0.021164     -0.602706
   H      1.358688      0.365133      0.259703
   H      0.593978     -0.981282      0.855099
   H      0.097840      0.530415      1.325156
   H     -0.085842     -0.576396     -1.413590
   H     -0.624151      1.063930     -0.903646
   H     -1.453981     -0.397072     -0.257479
   K      0.000000      0.000000      6.180000
