    9
 0019.xyz Energy 0.0849619
   N      0.382721     -0.116861      0.559681
   C     -0.438096      0.133757     -0.640666
   H      0.984845     -0.941482      0.436455
   H     -0.204777     -0.283584      1.387286
   H      0.993411      0.683631      0.769893
   H     -1.060307     -0.747098     -0.809589
   H      0.239811      0.302324     -1.479587
   H     -1.051032      1.016295     -0.447769
   K      0.000000      0.000000      6.580000
