    9
 0022.xyz Energy 0.107717
   N      0.504162     -0.303991      0.356068
   C     -0.577117      0.347978     -0.407577
   H      0.155009     -0.694639      1.241068
   H      1.254237      0.361144      0.585987
   H      0.927137     -1.075173     -0.177121
   H     -0.982748      1.152633      0.208524
   H     -1.337775     -0.405858     -0.619456
   H     -0.144911      0.739740     -1.330341
   K      0.000000      0.000000      5.060000
