    9
 0024.xyz Energy 0.0951768
   N     -0.161618      0.430158      0.512073
   C      0.185008     -0.492406     -0.586157
   H      0.425613      0.264600      1.340015
   H     -1.142351      0.317419      0.800748
   H     -0.032297      1.411392      0.232121
   H      0.027567     -1.511603     -0.228334
   H      1.232125     -0.324647     -0.845316
   H     -0.469327     -0.267239     -1.430502
   K      0.000000      0.000000      5.860000
