    9
 0026.xyz Energy 0.0866089
   N     -0.408453      0.501069      0.235523
   C      0.467550     -0.573565     -0.269613
   H     -1.085359      0.799668     -0.478882
   H      0.135454      1.329164      0.511753
   H     -0.942809      0.193131      1.058661
   H      1.004221     -0.186503     -1.137803
   H     -0.165775     -1.419208     -0.544476
   H      1.158920     -0.844640      0.530573
   K      0.000000      0.000000      6.180000
