    9
 0027.xyz Energy 0.0802733
   N     -0.379995     -0.278877      0.501205
   C      0.434971      0.319240     -0.573722
   H     -1.202097      0.300938      0.714983
   H      0.161492     -0.380234      1.369766
   H     -0.720214     -1.213124      0.237854
   H      0.764015      1.303413     -0.235018
   H     -0.192722      0.399772     -1.463260
   H      1.286921     -0.339478     -0.752735
   K      0.000000      0.000000      6.900000
