    9
 0028.xyz Energy 0.110035
   N      0.201290     -0.633790     -0.176543
   C     -0.230405      0.725494      0.202096
   H      0.755094     -1.072856      0.570625
   H      0.782516     -0.619667     -1.024987
   H     -0.604884     -1.244457     -0.363858
   H      0.665558      1.321132      0.386627
   H     -0.839830      0.643238      1.104092
   H     -0.810132      1.134941     -0.627388
   K      0.000000      0.000000      4.500000
