    9
 0029.xyz Energy 0.0936243
   N     -0.103485     -0.155650     -0.662147
   C      0.118445      0.178170      0.757956
   H     -1.080523      0.009375     -0.937648
   H      0.108992     -1.143840     -0.852448
   H      0.492106      0.413141     -1.278318
   H     -0.538661     -0.455451      1.356557
   H     -0.123041      1.234009      0.894523
   H      1.167791     -0.017348      0.986906
   K      0.000000      0.000000      5.180000
