    2
 0000.xyz Energy 0.00595262
   F     15.828000     20.307000     26.416000
   F    -28.859000    -32.596000    -29.325000
