    2
 0001.xyz Energy 0.137832
   F     -1.198000      1.219000      0.222000
   F      2.435300      1.293800     -0.478700
