    2
 0002.xyz Energy 0.130152
   F     -1.198000      1.219000      0.222000
   F      2.677969      1.298796     -0.525500
