    2
 0003.xyz Energy 0.125627
   F     -1.198000      1.219000      0.222000
   F      2.833008      1.301988     -0.555400
