    2
 0004.xyz Energy 0.123745
   F     -1.198000      1.219000      0.222000
   F      2.900416      1.303376     -0.568400
