    2
 0005.xyz Energy 0.124304
   F     -1.198000      1.219000      0.222000
   F      2.880194      1.302959     -0.564500
