    2
 0008.xyz Energy 0.142681
   F     -1.198000      1.219000      0.222000
   F      2.293743      1.290886     -0.451400
