    2
 0010.xyz Energy 0.178503
   F     -1.198000      1.219000      0.222000
   F      1.464622      1.273816     -0.291500
