    2
 0011.xyz Energy 0.22052
   F     -1.198000      1.219000      0.222000
   F      0.918616      1.262576     -0.186200
