    2
 0013.xyz Energy 1.96887
   F     -1.198000      1.219000      0.222000
   F     -0.436288      1.234682      0.075100
