    2
 0015.xyz Energy 0.990653
   F     -1.198000      1.219000      0.222000
   F     -2.141714      1.199571      0.404000
