    2
 0016.xyz Energy 0.247463
   F     -1.198000      1.219000      0.222000
   F     -3.125873      1.179310      0.593800
