    2
 0017.xyz Energy 0.162047
   F     -1.198000      1.219000      0.222000
   F     -4.197663      1.157245      0.800500
