    2
 0018.xyz Energy 0.122093
   F     -1.198000      1.219000      0.222000
   F     -5.357084      1.133376      1.024100
