    2
 0022.xyz Energy 0.0536294
   F     -1.198000      1.219000      0.222000
   F    -10.871071      1.019857      2.087500
