    2
 0023.xyz Energy 0.08437
   F     -1.198000      1.219000      0.222000
   F     -7.320783      1.092948      1.402809
