    2
 0026.xyz Energy 0.052006
   F     -1.198000      1.219000      0.222000
   F    -11.174283      1.013615      2.145976
