    2
 0027.xyz Energy 0.045549
   F     -1.198000      1.219000      0.222000
   F    -12.593350      0.984400      2.419650
