    2
 0030.xyz Energy 0.0323447
   F     -1.198000      1.219000      0.222000
   F    -17.254250      0.888444      3.318528
