    2
 0031.xyz Energy 0.0292697
   F     -1.198000      1.219000      0.222000
   F    -18.942450      0.853689      3.644106
