    2
 0032.xyz Energy 0.0266362
   F     -1.198000      1.219000      0.222000
   F    -20.697933      0.817548      3.982659
