    2
 0033.xyz Energy 0.0243602
   F     -1.198000      1.219000      0.222000
   F    -22.520700      0.780022      4.334189
