    2
 0036.xyz Energy 0.0191015
   F     -1.198000      1.219000      0.222000
   F    -28.392700      0.659133      5.466633
