    2
 0037.xyz Energy 0.0177373
   F     -1.198000      1.219000      0.222000
   F    -30.484600      0.616067      5.870067
