    2
 0038.xyz Energy 0.0165196
   F     -1.198000      1.219000      0.222000
   F    -32.643783      0.571615      6.286476
