    2
 0039.xyz Energy 0.0154274
   F     -1.198000      1.219000      0.222000
   F    -34.870250      0.525778      6.715861
