    2
 0040.xyz Energy 0.0144436
   F     -1.198000      1.219000      0.222000
   F    -37.164000      0.478556      7.158222
