    2
 0041.xyz Energy 0.0135539
   F     -1.198000      1.219000      0.222000
   F    -39.525033      0.429948      7.613559
