    2
 0043.xyz Energy 0.0120109
   F     -1.198000      1.219000      0.222000
   F    -44.448950      0.328578      8.563161
