    2
 0044.xyz Energy 0.011339
   F     -1.198000      1.219000      0.222000
   F    -47.011833      0.275815      9.057426
