    2
 0046.xyz Energy 0.0101578
   F     -1.198000      1.219000      0.222000
   F    -52.339450      0.166133     10.084883
