    2
 0047.xyz Energy 0.00963688
   F     -1.198000      1.219000      0.222000
   F    -55.104183      0.109215     10.618076
