    2
 0048.xyz Energy 0.00915588
   F     -1.198000      1.219000      0.222000
   F    -57.936200      0.050911     11.164244
