    2
 0049.xyz Energy 0.00871077
   F     -1.198000      1.219000      0.222000
   F    -60.835500     -0.008778     11.723389
