    2
 0053.xyz Energy 0.00722442
   F     -1.198000      1.219000      0.222000
   F    -73.105533     -0.261385     14.089726
