    2
 0054.xyz Energy 0.00691333
   F     -1.198000      1.219000      0.222000
   F    -76.341250     -0.328000     14.713750
