    2
 0058.xyz Energy 0.0352569
   F     -1.198000      1.219000      0.222000
   F    -15.926684      0.915776      3.062500
