    2
 0059.xyz Energy 0.0313065
   F     -1.198000      1.219000      0.222000
   F    -17.787149      0.877473      3.421300
