    2
 0061.xyz Energy 0.0252475
   F     -1.198000      1.219000      0.222000
   F    -21.770971      0.795457      4.189600
