    2
 0063.xyz Energy 0.0208553
   F     -1.198000      1.219000      0.222000
   F    -26.105316      0.706224      5.025500
