    2
 0064.xyz Energy 0.0190936
   F     -1.198000      1.219000      0.222000
   F    -28.403935      0.658902      5.468800
