    2
 0067.xyz Energy 0.0150018
   F     -1.198000      1.219000      0.222000
   F    -35.825573      0.506110      6.900100
