    2
 0070.xyz Energy 0.0121267
   F     -1.198000      1.219000      0.222000
   F    -44.035888      0.337082      8.483500
