    2
 0073.xyz Energy 0.0100216
   F     -1.198000      1.219000      0.222000
   F    -53.034878      0.151816     10.219000
