    2
 0075.xyz Energy 0.00891453
   F     -1.198000      1.219000      0.222000
   F    -59.472357      0.019286     11.460500
