    2
 0076.xyz Energy 0.0084299
   F     -1.198000      1.219000      0.222000
   F    -62.822543     -0.049686     12.106600
