    2
 0078.xyz Energy 0.00757408
   F     -1.198000      1.219000      0.222000
   F    -69.785806     -0.193041     13.449500
