    2
 0079.xyz Energy 0.00719506
   F     -1.198000      1.219000      0.222000
   F    -73.398884     -0.267424     14.146300
