    2
 0080.xyz Energy 0.00684426
   F     -1.198000      1.219000      0.222000
   F    -77.099592     -0.343612     14.860000
