    2
 0081.xyz Energy 0.0065189
   F     -1.198000      1.219000      0.222000
   F    -80.887931     -0.421604     15.590600
