    5
 0000.xyz Energy -0.134628
   O      0.041645      0.605119      0.988691
   O     -0.369986     -0.475014     -0.991411
   C      0.321289     -0.127315      0.002656
   H      1.383426     -0.548140      0.011529
  Na      0.000000      0.000000      4.360000
