    5
 0001.xyz Energy -0.123744
   O      0.005398      0.322208      1.114256
   O      0.340572     -0.261376     -1.077551
   C     -0.338540     -0.059527     -0.035923
   H     -1.457698     -0.256285     -0.154573
  Na      0.000000      0.000000      4.800000
