    5
 0002.xyz Energy -0.121684
   O      1.018126     -0.278923     -0.480660
   O     -0.888071      0.604445      0.437492
   C     -0.127268     -0.318530      0.042244
   H     -0.547901     -1.371566      0.181850
  Na      0.000000      0.000000      4.280000
