    5
 0003.xyz Energy -0.113539
   O     -0.306696      1.068195     -0.332131
   O      0.599471     -0.980842      0.154943
   C     -0.286485     -0.085483      0.173385
   H     -1.233586     -0.367974      0.746537
  Na      0.000000      0.000000      4.440000
