    5
 0004.xyz Energy -0.103266
   O     -0.582504     -0.248181      0.971859
   O      0.809977      0.018188     -0.830078
   C     -0.222585      0.225055     -0.138741
   H     -0.958470      0.969030     -0.597305
  Na      0.000000      0.000000      5.480000
