    5
 0005.xyz Energy -0.134214
   O      0.016743     -0.657543     -0.955390
   O      0.025037      0.341839      1.108126
   C     -0.040882      0.308928     -0.149450
   H     -0.176031      1.330132     -0.643598
  Na      0.000000      0.000000      4.520000
