    5
 0006.xyz Energy -0.126239
   O      0.374316      0.434518      1.008214
   O     -0.685835     -0.400775     -0.845241
   C      0.304827     -0.033020     -0.159478
   H      1.312571     -0.142140     -0.686593
  Na      0.000000      0.000000      4.660000
