    5
 0007.xyz Energy -0.115356
   O      0.357972      0.249206      1.074787
   O     -0.113720     -0.501873     -1.039526
   C     -0.239008      0.247239     -0.034509
   H     -1.029098      1.064596     -0.148490
  Na      0.000000      0.000000      5.040000
