    5
 0008.xyz Energy -0.127198
   O      0.772289     -0.850950      0.157695
   O     -0.924341      0.690736      0.117905
   C      0.148781      0.156777     -0.269681
   H      0.640701      0.674979     -1.161190
  Na      0.000000      0.000000      4.280000
