    5
 0009.xyz Energy -0.106269
   O     -0.610014     -0.816184      0.554202
   O      0.304059      0.989807     -0.522737
   C      0.299387     -0.169889     -0.030793
   H      1.289056     -0.731592     -0.132536
  Na      0.000000      0.000000      5.000000
