    5
 0010.xyz Energy -0.133828
   O     -0.118593      0.324005     -1.107416
   O      0.401818     -0.114520      1.082059
   C     -0.277141     -0.204988      0.024819
   H     -1.193335     -0.882616      0.106761
  Na      0.000000      0.000000      4.480000
