    5
 0011.xyz Energy -0.123477
   O      0.220490      0.172918      1.125565
   O      0.042161      0.061035     -1.157550
   C     -0.257012     -0.228930      0.031291
   H     -1.106631     -0.985720      0.134840
  Na      0.000000      0.000000      4.820000
