    5
 0012.xyz Energy -0.117046
   O      0.770901      0.176351      0.848543
   O     -0.480070     -0.285564     -1.016568
   C     -0.284590      0.106866      0.164411
   H     -1.225327      0.460166      0.708009
  Na      0.000000      0.000000      4.760000
