    5
 0013.xyz Energy -0.116963
   O      0.121377     -1.106450     -0.326268
   O      0.096178      0.998350      0.582641
   C     -0.212884      0.105784     -0.250865
   H     -0.916632      0.455386     -1.080216
  Na      0.000000      0.000000      4.740000
