    5
 0014.xyz Energy -0.114216
   O     -0.671487     -0.942197     -0.082360
   O      0.798637      0.761312      0.357780
   C     -0.124416      0.177006     -0.269504
   H     -0.535778      0.762072     -1.160451
  Na      0.000000      0.000000      4.780000
