    5
 0015.xyz Energy -0.133711
   O      0.003915      0.384409      1.094362
   O      0.100775     -0.052469     -1.154346
   C     -0.102442     -0.324814      0.058690
   H     -0.441099     -1.398562      0.252812
  Na      0.000000      0.000000      4.500000
