    5
 0016.xyz Energy -0.128822
   O      0.127519     -0.975353     -0.614686
   O     -0.464217      0.868706      0.612599
   C      0.329465      0.104362      0.002047
   H      1.418637      0.449275      0.008755
  Na      0.000000      0.000000      4.180000
