    5
 0017.xyz Energy -0.105683
   O      1.109042      0.151994      0.303869
   O     -0.959693     -0.198281     -0.620563
   C     -0.146148      0.045292      0.309891
   H     -0.629188      0.195034      1.334369
  Na      0.000000      0.000000      4.920000
