    5
 0018.xyz Energy -0.108416
   O     -0.545136     -0.159661      1.011310
   O      0.317635      0.429192     -1.029721
   C      0.222618     -0.263742      0.018010
   H      0.958507     -1.135646      0.077641
  Na      0.000000      0.000000      5.240000
