    5
 0019.xyz Energy -0.104681
   O     -1.021831      0.271775      0.476879
   O      0.810034     -0.439696     -0.704227
   C      0.207254      0.164314      0.222463
   H      0.892308      0.707534      0.957934
  Na      0.000000      0.000000      4.980000
