    5
 0020.xyz Energy -0.143477
   O     -0.881027      0.608392     -0.446166
   O      0.891986     -0.330423      0.663781
   C     -0.010719     -0.272003     -0.212938
   H     -0.046237     -1.171144     -0.916919
  Na      0.000000      0.000000      3.940000
