    5
 0021.xyz Energy -0.124174
   O      0.332731     -0.528800     -0.977279
   O     -0.029480      0.389012      1.092348
   C     -0.296741      0.136788     -0.112592
   H     -1.277687      0.588939     -0.484895
  Na      0.000000      0.000000      4.780000
