    5
 0022.xyz Energy -0.117767
   O      0.604403     -0.629088      0.764434
   O     -0.314552      0.572892     -0.958267
   C     -0.283629      0.054993      0.189666
   H     -1.221206      0.236732      0.816744
  Na      0.000000      0.000000      4.660000
