    5
 0023.xyz Energy -0.108189
   O     -0.117566     -0.511753     -1.034263
   O      0.453874      0.417043      0.982597
   C     -0.329085      0.092679      0.050563
   H     -1.417000      0.399012      0.217618
  Na      0.000000      0.000000      5.220000
