    5
 0024.xyz Energy -0.10179
   O     -0.442215     -0.422646      0.985510
   O      0.242942      0.165025     -1.122127
   C      0.194997      0.252090      0.133678
   H      0.839583      1.085422      0.575688
  Na      0.000000      0.000000      5.500000
