    5
 0025.xyz Energy -0.135863
   O     -0.330906     -0.537620     -0.973078
   O      0.110299      0.783521      0.848146
   C      0.215871     -0.240617      0.122254
   H      0.929476     -1.036111      0.526314
  Na      0.000000      0.000000      4.180000
