    5
 0026.xyz Energy -0.1229
   O     -0.153868     -0.032390      1.149212
   O     -0.198897      0.016377     -1.142627
   C      0.345190      0.015669     -0.006451
   H      1.486318      0.067466     -0.027669
  Na      0.000000      0.000000      4.860000
