    5
 0027.xyz Energy -0.115103
   O      0.383626      0.197099     -1.076753
   O     -0.367569      0.155510      1.089098
   C     -0.015714     -0.345037     -0.012073
   H     -0.067628     -1.485655     -0.052087
  Na      0.000000      0.000000      5.060000
