    5
 0028.xyz Energy -0.116366
   O     -0.944128     -0.584316     -0.335574
   O      1.096053      0.273880      0.262834
   C     -0.148656      0.303773      0.071179
   H     -0.640179      1.307942      0.306455
  Na      0.000000      0.000000      4.380000
