    5
 0029.xyz Energy -0.111434
   O      0.431570     -0.385513     -1.005256
   O     -0.678415      0.514207      0.787889
   C      0.241541     -0.125927      0.212705
   H      1.040076     -0.542260      0.915780
  Na      0.000000      0.000000      4.920000
