    5
 0030.xyz Energy -0.133101
   O      0.296882     -0.160971     -1.109668
   O      0.012222     -0.002364      1.159857
   C     -0.302468      0.159828     -0.049105
   H     -1.302351      0.688178     -0.211543
  Na      0.000000      0.000000      4.580000
