    5
 0031.xyz Energy -0.132583
   O      0.542275     -0.909742     -0.472993
   O     -0.457914      0.737328      0.769471
   C     -0.082552      0.168716     -0.290109
   H     -0.355407      0.726378     -1.249207
  Na      0.000000      0.000000      4.380000
