    5
 0032.xyz Energy -0.112985
   O      0.941003      0.412162     -0.538563
   O     -0.905847     -0.662890      0.292305
   C     -0.034406      0.245340      0.240972
   H     -0.148060      1.056436      1.037535
  Na      0.000000      0.000000      4.540000
