    5
 0033.xyz Energy -0.123599
   O     -0.335031      1.011484     -0.458332
   O      0.648751     -0.898809      0.341598
   C     -0.306981     -0.110261      0.114229
   H     -1.321842     -0.474674      0.491810
  Na      0.000000      0.000000      4.140000
