    5
 0034.xyz Energy -0.108725
   O     -1.103917     -0.178149      0.308291
   O      0.955738      0.448755     -0.480216
   C      0.145003     -0.264793      0.168231
   H      0.624258     -1.140175      0.724404
  Na      0.000000      0.000000      4.700000
