    5
 0035.xyz Energy -0.135616
   O      0.853583      0.746411      0.244294
   O     -0.961421     -0.474674     -0.442467
   C      0.105517     -0.265905      0.193916
   H      0.454421     -1.144877      0.834994
  Na      0.000000      0.000000      3.720000
