    5
 0036.xyz Energy -0.123899
   O     -0.085507     -0.454171     -1.063875
   O      0.318507      0.191054      1.098852
   C     -0.227995      0.257469     -0.034219
   H     -0.981719      1.108578     -0.147442
  Na      0.000000      0.000000      4.780000
