    5
 0037.xyz Energy -0.115538
   O      0.148625      0.064446     -1.148552
   O     -0.244134     -0.393648      1.063421
   C      0.093457      0.322131      0.083309
   H      0.402425      1.387051      0.358608
  Na      0.000000      0.000000      5.020000
