    5
 0038.xyz Energy -0.125978
   O      0.946105      0.602286      0.295889
   O     -0.925514     -0.697821      0.043511
   C     -0.020154      0.093479     -0.332112
   H     -0.086691      0.402564     -1.429994
  Na      0.000000      0.000000      4.420000
