    5
 0039.xyz Energy -0.101522
   O     -0.422769      0.013911     -1.080040
   O      0.378588     -0.361435      1.035113
   C      0.043234      0.340060      0.043968
   H      0.186120      1.464245      0.189218
  Na      0.000000      0.000000      5.560000
