    5
 0043.xyz Energy -0.225413
   O     -0.814000      0.489000      0.386000
   O      0.779000     -0.886000      1.018000
   C      0.035000     -0.407000      0.116000
   H      0.129000     -0.780000     -0.934000
  Na     -0.199600      0.422760      2.359760
