    5
 0000.xyz Energy -0.121326
   O     -0.379232     -0.291380     -1.056737
   O      0.446797      0.595157      0.889711
   C     -0.066112     -0.297250      0.163446
   H     -0.284702     -1.279940      0.703673
   K      0.000000      0.000000      4.660000
