    5
 0001.xyz Energy -0.117648
   O     -0.742963     -0.427461     -0.781471
   O      0.973322      0.253991      0.577545
   C     -0.225407      0.169747      0.199551
   H     -0.970636      0.730864      0.859162
   K      0.000000      0.000000      4.520000
