    5
 0002.xyz Energy -0.110477
   O      0.856305      0.604822      0.496332
   O     -0.885934     -0.306509     -0.683079
   C      0.028988     -0.291910      0.182733
   H      0.124898     -1.256860      0.786867
   K      0.000000      0.000000      4.740000
