    5
 0003.xyz Energy -0.0989967
   O      0.732801      0.463585     -0.770392
   O     -0.580412     -0.760791      0.655548
   C     -0.149121      0.290820      0.112382
   H     -0.642022      1.252268      0.483829
   K      0.000000      0.000000      5.380000
