    5
 0004.xyz Energy -0.0873842
   O     -0.617574     -0.973293      0.129297
   O      0.736750      0.796213     -0.410692
   C     -0.116613      0.173282      0.275350
   H     -0.502174      0.746032      1.185628
   K      0.000000      0.000000      5.840000
