    5
 0005.xyz Energy -0.123189
   O      1.015862      0.544415      0.130578
   O     -1.090099     -0.248610     -0.308710
   C      0.072637     -0.289455      0.174306
   H      0.312857     -1.246298      0.750545
   K      0.000000      0.000000      4.080000
