    5
 0006.xyz Energy -0.110425
   O     -0.161499     -0.007445     -1.148597
   O     -0.071681      0.271699      1.125373
   C      0.228173     -0.258579      0.022732
   H      0.982462     -1.113403      0.097773
   K      0.000000      0.000000      5.280000
