    5
 0007.xyz Energy -0.109408
   O     -0.701083     -0.699976      0.603266
   O      0.501168      0.945710     -0.447088
   C      0.195625     -0.240452     -0.152828
   H      0.842267     -1.035416     -0.657996
   K      0.000000      0.000000      4.980000
