    5
 0008.xyz Energy -0.0916031
   O      0.427259      1.073441     -0.102894
   O     -0.220184     -1.124744     -0.178586
   C     -0.202630      0.050195      0.275435
   H     -0.872454      0.216233      1.185970
   K      0.000000      0.000000      5.540000
