    5
 0009.xyz Energy -0.0872781
   O     -0.172359      0.876400     -0.740019
   O      0.177999     -1.059240      0.437893
   C     -0.005518      0.178908      0.295642
   H     -0.023776      0.770433      1.272920
   K      0.000000      0.000000      5.960000
