    5
 0010.xyz Energy -0.13444
   O     -0.856902      0.768641     -0.142560
   O      0.647231     -0.872155      0.407260
   C      0.205173      0.101287     -0.259014
   H      0.883362      0.436198     -1.115285
   K      0.000000      0.000000      4.100000
