    5
 0011.xyz Energy -0.122474
   O      0.521039     -1.010013     -0.231959
   O     -0.478266      0.894325      0.562911
   C     -0.041858      0.113210     -0.323843
   H     -0.180183      0.487370     -1.394440
   K      0.000000      0.000000      4.620000
