    5
 0012.xyz Energy -0.102928
   O      0.357466      0.149956      1.093227
   O     -0.008831     -0.161219     -1.148631
   C     -0.341149      0.011020      0.054208
   H     -1.468903      0.047465      0.233515
   K      0.000000      0.000000      5.560000
