    5
 0013.xyz Energy -0.0947712
   O      0.317454      1.002614     -0.489287
   O     -0.106099     -1.130513      0.236870
   C     -0.206817      0.125146      0.246998
   H     -0.890492      0.538953      1.063490
   K      0.000000      0.000000      5.400000
