    5
 0014.xyz Energy -0.101214
   O      1.002573     -0.403034      0.421693
   O     -1.008131      0.563573     -0.107147
   C      0.005433     -0.157090     -0.307793
   H      0.023487     -0.676441     -1.325267
   K      0.000000      0.000000      5.440000
