    5
 0015.xyz Energy -0.120934
   O     -0.687956      0.284449     -0.889505
   O      0.627753      0.053178      0.973921
   C      0.058913     -0.330378     -0.082598
   H      0.253607     -1.422530     -0.355736
   K      0.000000      0.000000      4.780000
