    5
 0016.xyz Energy -0.110353
   O      0.170828      0.337714      1.096440
   O     -0.432693     -0.102045     -1.071349
   C      0.256240     -0.230610     -0.024559
   H      1.103345     -0.992938     -0.105644
   K      0.000000      0.000000      5.260000
