    5
 0017.xyz Energy -0.105836
   O     -0.237565      0.915943      0.670839
   O      0.426004     -0.672346     -0.843739
   C     -0.184390     -0.238370      0.169182
   H     -0.793979     -1.026299      0.728536
   K      0.000000      0.000000      5.060000
