    5
 0018.xyz Energy -0.0975931
   O     -0.407704      0.269191      1.052011
   O      0.713304     -0.186465     -0.895462
   C     -0.299035     -0.080950     -0.153193
   H     -1.287635     -0.348534     -0.659528
   K      0.000000      0.000000      5.840000
