    5
 0019.xyz Energy -0.0939799
   O      0.526571      0.898778      0.510231
   O     -0.622838     -0.644812     -0.736012
   C      0.094197     -0.248516      0.220929
   H      0.405647     -1.069988      0.951333
   K      0.000000      0.000000      5.560000
