    5
 0020.xyz Energy -0.122636
   O      0.660104      0.518835      0.800305
   O     -0.427918     -0.779190     -0.745099
   C     -0.227203      0.254761     -0.054024
   H     -0.978239      1.097009     -0.232545
   K      0.000000      0.000000      4.560000
