    5
 0021.xyz Energy -0.116842
   O      0.710518      0.382350      0.833299
   O     -0.843826     -0.564113     -0.561390
   C      0.130441      0.177857     -0.266074
   H      0.561724      0.765860     -1.145593
   K      0.000000      0.000000      4.920000
