    5
 0022.xyz Energy -0.104063
   O     -0.100922      0.453752     -1.062703
   O      0.382662     -0.604960      0.912697
   C     -0.275688      0.147958      0.146790
   H     -1.187080      0.637127      0.631955
   K      0.000000      0.000000      5.340000
