    5
 0023.xyz Energy -0.0988028
   O      0.854824     -0.258596     -0.740147
   O     -0.807284     -0.079898      0.829055
   C     -0.046524      0.331226     -0.086995
   H     -0.200245      1.426181     -0.374656
   K      0.000000      0.000000      5.580000
