    5
 0024.xyz Energy -0.0907624
   O      0.293590      0.144645     -1.112788
   O     -0.190721     -0.474801      1.040968
   C     -0.100661      0.323064      0.070284
   H     -0.433401      1.391078      0.302528
   K      0.000000      0.000000      6.140000
