    5
 0025.xyz Energy -0.121869
   O     -0.207645     -0.775053     -0.837609
   O      0.119013      0.499548      1.040054
   C      0.086730      0.269593     -0.198092
   H      0.373426      1.160753     -0.853031
   K      0.000000      0.000000      4.860000
