    5
 0026.xyz Energy -0.110074
   O      0.005220      0.157698      1.149138
   O     -0.217973      0.123732     -1.132520
   C      0.208184     -0.275386     -0.016267
   H      0.896408     -1.185756     -0.069937
   K      0.000000      0.000000      5.320000
