    5
 0027.xyz Energy -0.104079
   O     -0.447965      0.625796      0.867825
   O      0.165165     -0.496413     -1.035238
   C      0.276729     -0.126608      0.163813
   H      1.191509     -0.545095      0.705433
   K      0.000000      0.000000      5.300000
