    5
 0028.xyz Energy -0.104254
   O     -0.523196     -0.965633      0.373139
   O      0.211437      1.104873     -0.282798
   C      0.305066     -0.136244     -0.088403
   H      1.313519     -0.586735     -0.380613
   K      0.000000      0.000000      5.060000
