    5
 0029.xyz Energy -0.0915151
   O      0.189736      0.635082      0.951885
   O     -0.493035     -0.454182     -0.946604
   C      0.296784     -0.177018     -0.005174
   H      1.277925     -0.762151     -0.022188
   K      0.000000      0.000000      6.040000
