    5
 0030.xyz Energy -0.124494
   O      0.378715      0.900844      0.624875
   O     -0.687863     -0.738546     -0.571680
   C      0.302506     -0.158817     -0.052057
   H      1.302581     -0.683757     -0.224089
   K      0.000000      0.000000      4.360000
