    5
 0031.xyz Energy -0.110201
   O      0.060445     -0.306121      1.117162
   O      0.105746     -0.003209     -1.155089
   C     -0.162622      0.302688      0.037107
   H     -0.700220      1.303299      0.159880
   K      0.000000      0.000000      5.280000
