    5
 0032.xyz Energy -0.105622
   O      0.457599     -0.781651      0.724595
   O     -0.115724      0.840536     -0.790905
   C     -0.334535     -0.057615      0.064882
   H     -1.440413     -0.248156      0.279440
   K      0.000000      0.000000      5.120000
