    5
 0033.xyz Energy -0.112666
   O      0.061717     -1.137608      0.217834
   O     -0.188255      1.139061      0.111906
   C      0.123820     -0.001415     -0.322660
   H      0.533157     -0.006201     -1.389303
   K      0.000000      0.000000      4.900000
