    5
 0034.xyz Energy -0.0917084
   O     -0.552789     -0.312654      0.970611
   O      0.713589      0.003249     -0.914442
   C     -0.157342      0.302762     -0.054968
   H     -0.677544      1.303617     -0.236591
   K      0.000000      0.000000      6.060000
