    5
 0035.xyz Energy -0.10979
   O      0.134625      0.898696     -0.720857
   O     -0.184901     -1.067379      0.414653
   C      0.049195      0.165055      0.299632
   H      0.211840      0.710787      1.290102
   K      0.000000      0.000000      4.780000
