    5
 0036.xyz Energy -0.107327
   O     -0.484988      0.963602      0.426229
   O      0.561028     -0.743243     -0.691564
   C     -0.074404     -0.215632      0.259634
   H     -0.320419     -0.928387      1.117983
   K      0.000000      0.000000      4.860000
