    5
 0037.xyz Energy -0.0928375
   O     -0.975493     -0.489558     -0.392633
   O      0.984700      0.610000      0.060741
   C     -0.009004     -0.117852      0.324766
   H     -0.038862     -0.507498      1.398353
   K      0.000000      0.000000      5.520000
