    5
 0038.xyz Energy -0.100884
   O     -1.042870     -0.218752      0.458239
   O      0.994779     -0.106629     -0.586915
   C      0.047065      0.318394      0.125910
   H      0.202555      1.370933      0.542191
   K      0.000000      0.000000      5.160000
