    5
 0039.xyz Energy -0.0905912
   O     -0.359955     -0.076459     -1.100000
   O      0.110857      0.326734      1.107420
   C      0.243751     -0.244900     -0.007255
   H      1.049519     -1.054507     -0.031340
   K      0.000000      0.000000      6.220000
