    5
 0044.xyz Energy -0.191107
   O     -0.020000      1.229000      1.295000
   O     -0.363000     -0.807000      0.470000
   C     -0.302000      0.448000      0.343000
   H     -0.509000      0.893000     -0.667000
   K      0.161700     -0.684600      2.646200
