    6
 0001.xyz Energy -0.162725
   H      0.546030      0.864762      0.051012
   N     -0.000003     -0.000005     -0.000000
   H     -0.998310      0.223679      0.042794
   H      0.204512     -0.481353     -0.880356
   H      0.247809     -0.607023      0.786553
   F      0.000000      0.000000      3.380000
