    6
 0002.xyz Energy -0.153103
   H     -0.724612     -0.474052     -0.546606
   N      0.000004      0.000003      0.000003
   H      0.917621     -0.188856     -0.413271
   H     -0.174920      1.008931     -0.003734
   H     -0.018144     -0.346059      0.963569
   F      0.000000      0.000000      3.680000
