    6
 0003.xyz Energy -0.176941
   H      0.363112     -0.927872     -0.236153
   N     -0.000002      0.000005      0.000001
   H     -0.878415     -0.098641      0.516860
   H      0.682982      0.496507      0.579283
   H     -0.167652      0.529935     -0.860008
   F      0.000000      0.000000      3.060000
