    6
 0004.xyz Energy -0.165227
   H      0.998612      0.199224      0.107931
   N     -0.000005     -0.000001     -0.000001
   H     -0.160669     -1.005808      0.104990
   H     -0.528439      0.506640      0.715975
   H     -0.309428      0.299958     -0.928887
   F      0.000000      0.000000      3.300000
