    6
 0006.xyz Energy -0.177745
   H     -0.621647     -0.609357      0.539262
   N      0.000003      0.000003     -0.000003
   H     -0.392095      0.945375     -0.031838
   H      0.921618      0.027539      0.445437
   H      0.092078     -0.363604     -0.952820
   F      0.000000      0.000000      3.020000
