    6
 0007.xyz Energy -0.166007
   H      0.143936     -0.406046     -0.928964
   N     -0.000001      0.000002      0.000005
   H      0.374739      0.952753      0.017839
   H     -1.001776      0.023232      0.210848
   H      0.483111     -0.569970      0.700207
   F      0.000000      0.000000      3.280000
