    6
 0010.xyz Energy -0.15537
   H     -0.197624     -0.240970      0.975419
   N      0.000001      0.000001     -0.000005
   H     -0.668431     -0.477113     -0.611596
   H     -0.085237      1.012701     -0.125391
   H      0.951277     -0.294636     -0.238357
   F      0.000000      0.000000      3.640000
