    6
 0012.xyz Energy -0.171017
   H      0.733056      0.618334      0.358965
   N     -0.000004     -0.000003     -0.000002
   H     -0.344592      0.362106     -0.893657
   H      0.383088     -0.939643     -0.137357
   H     -0.771496     -0.040750      0.672076
   F      0.000000      0.000000      3.180000
