    6
 0013.xyz Energy -0.165809
   H      0.483540      0.851462      0.299612
   N     -0.000003     -0.000005     -0.000002
   H      0.685536     -0.743771     -0.159159
   H     -0.658376     -0.292620      0.727645
   H     -0.510663      0.184994     -0.868074
   F      0.000000      0.000000      3.300000
