    6
 0016.xyz Energy -0.161767
   H      0.560177     -0.278901      0.810543
   N     -0.000003      0.000002     -0.000004
   H      0.614283      0.384363     -0.723469
   H     -0.494371     -0.816621     -0.370512
   H     -0.680047      0.711138      0.283499
   F      0.000000      0.000000      3.420000
