    6
 0018.xyz Energy -0.159019
   H     -0.188243     -0.286894      0.964791
   N      0.000001      0.000002     -0.000005
   H     -0.805830      0.514628     -0.366446
   H      0.828046      0.602016     -0.021670
   H      0.166013     -0.829772     -0.576602
   F      0.000000      0.000000      3.560000
