    6
 0020.xyz Energy -0.173979
   H      0.882205     -0.125559      0.504494
   N     -0.000005      0.000001     -0.000003
   H     -0.304453      0.974195      0.082088
   H      0.135551     -0.233168     -0.987831
   H     -0.713236     -0.615479      0.401287
   F      0.000000      0.000000      3.080000
