    6
 0021.xyz Energy -0.162459
   H     -0.855665     -0.512124     -0.232660
   N      0.000005      0.000003      0.000001
   H      0.763092     -0.664268      0.157875
   H      0.245349      0.624083     -0.773871
   H     -0.152841      0.552271      0.848639
   F      0.000000      0.000000      3.420000
