    6
 0025.xyz Energy -0.174477
   H     -0.824885     -0.210933      0.568891
   N      0.000005      0.000001     -0.000003
   H     -0.074997      0.951741     -0.370204
   H      0.841797     -0.076049      0.578053
   H      0.058022     -0.664775     -0.776698
   F      0.000000      0.000000      3.120000
