    4
 0004.xyz Energy -0.0241729
   O     -1.337000      1.571000      0.000000
   H     -0.578000      0.931000      0.000000
   H     -2.082000      0.966000      0.000000
  Cl      0.575759     -0.665833      0.000000
