    4
 0009.xyz Energy -0.00600496
   O     -1.337000      1.571000      0.000000
   H     -0.578000      0.931000      0.000000
   H     -2.082000      0.966000      0.000000
  Cl      2.708333     -2.702000      0.000000
