    4
 0029.xyz Energy -1.45827e-05
   O      0.174639      0.313521     -0.152598
   H      0.117194     -0.567660     -0.533864
   H     -0.291834      0.254139      0.686461
  Cl      0.000000      0.000000     74.976980
