    4
 0059.xyz Energy -3.57933e-05
   O     -0.037310      0.008493     -0.388093
   H     -0.595112      0.444657      0.262876
   H      0.632422     -0.453151      0.125217
  Cl      0.000000      0.000000     74.899283
