    4
 0077.xyz Energy -6.5148e-05
   O     -0.013093     -0.061900     -0.384808
   H     -0.256436     -0.675296      0.314959
   H      0.269529      0.737196      0.069849
  Cl      0.000000      0.000000     55.209847
