    4
 0082.xyz Energy -0.00200218
   O     -0.217166      0.227971     -0.230105
   H     -0.196629      0.217447      0.731462
   H      0.413795     -0.445419     -0.501357
  Cl      0.000000      0.000000      8.598765
