    4
 0132.xyz Energy -0.000259166
   O      0.139194     -0.004217     -0.364263
   H      0.304369     -0.646343      0.332540
   H     -0.443563      0.650560      0.031723
  Cl      0.000000      0.000000     26.759074
