    4
 0156.xyz Energy -2.16578e-05
   O      0.284052     -0.203704     -0.172915
   H     -0.074345      0.646657     -0.444175
   H     -0.209707     -0.442953      0.617089
  Cl      0.000000      0.000000     65.039376
