    4
 0162.xyz Energy -0.000274915
   O     -0.012211      0.052513     -0.386230
   H     -0.433034      0.590641      0.290875
   H      0.445245     -0.643154      0.095355
  Cl      0.000000      0.000000     26.753989
