    4
 0177.xyz Energy 3.29489e-05
   O     -0.150970      0.059311      0.354642
   H      0.694592      0.371699      0.019107
   H     -0.543622     -0.431009     -0.373749
  Cl      0.000000      0.000000     75.288860
