    4
 0190.xyz Energy 0.00239
   O      0.181318      0.066729      0.338750
   H      0.200280     -0.739083     -0.186085
   H     -0.381598      0.672354     -0.152665
  Cl      0.000000      0.000000      8.896651
