    4
 0227.xyz Energy 3.32075e-05
   O      0.087441     -0.127841      0.357898
   H     -0.131520     -0.656877     -0.414967
   H      0.044079      0.784718      0.057069
  Cl      0.000000      0.000000     75.289255
