    4
 0246.xyz Energy 4.79082e-05
   O     -0.013234     -0.038438      0.387850
   H     -0.727238     -0.186586     -0.239362
   H      0.740471      0.225025     -0.148488
  Cl      0.000000      0.000000     65.372719
