    4
 0250.xyz Energy 0.00238945
   O      0.170632     -0.090017      0.338913
   H      0.327931      0.685913     -0.207287
   H     -0.498564     -0.595896     -0.131626
  Cl      0.000000      0.000000      8.896670
