    4
 0253.xyz Energy 0.000136163
   O      0.170632     -0.090017      0.338913
   H      0.327931      0.685913     -0.207287
   H     -0.498564     -0.595896     -0.131626
  Cl      0.000000      0.000000     36.477670
