    4
 0283.xyz Energy 6.75712e-05
   O      0.008730     -0.349347      0.173092
   H      0.490654     -0.073429     -0.612250
   H     -0.499384      0.422775      0.439158
  Cl      0.000000      0.000000     36.114111
