    4
 0297.xyz Energy -3.53326e-05
   O      0.006490     -0.071903     -0.383234
   H     -0.763691     -0.032495      0.191580
   H      0.757201      0.104398      0.191654
  Cl      0.000000      0.000000     74.892925
