    4
 0305.xyz Energy 7.48497e-06
   O     -0.366376     -0.128172      0.037693
   H      0.413242     -0.643683     -0.189437
   H     -0.046866      0.771855      0.151744
  Cl      0.000000      0.000000     55.194895
