    4
 0313.xyz Energy 3.50591e-05
   O     -0.184694      0.334228      0.079120
   H      0.753035      0.211375     -0.096136
   H     -0.568341     -0.545603      0.017016
  Cl      0.000000      0.000000     36.459121
