    4
 0319.xyz Energy 4.75063e-06
   O     -0.184694      0.334228      0.079120
   H      0.753035      0.211375     -0.096136
   H     -0.568341     -0.545603      0.017016
  Cl      0.000000      0.000000     95.545121
