    4
 0325.xyz Energy 2.21448e-05
   O     -0.311814      0.190974      0.135578
   H      0.149573     -0.544311      0.549851
   H      0.162241      0.353338     -0.685429
  Cl      0.000000      0.000000     55.249297
