    4
 0351.xyz Energy -0.000634441
   O     -0.026070     -0.015294     -0.388802
   H     -0.563406     -0.489636      0.252613
   H      0.589476      0.504930      0.136188
  Cl      0.000000      0.000000     17.556245
