    4
 0357.xyz Energy -3.58576e-05
   O     -0.026070     -0.015294     -0.388802
   H     -0.563406     -0.489636      0.252613
   H      0.589476      0.504930      0.136188
  Cl      0.000000      0.000000     74.898245
