    4
 0360.xyz Energy 0.000795643
   O      0.329266      0.184881      0.097381
   H     -0.573590      0.467793      0.270457
   H      0.244325     -0.652674     -0.367838
  Cl      0.000000      0.000000      8.509743
