    4
 0407.xyz Energy 3.57242e-05
   O      0.064584      0.012335      0.384392
   H     -0.632619     -0.463573     -0.076653
   H      0.568035      0.451238     -0.307738
  Cl      0.000000      0.000000     75.292599
