    4
 0428.xyz Energy -0.0150627
   O     -1.371000      1.520000      0.000000
   H     -0.613000      0.887000      0.000000
   H     -2.112000      0.914000      0.000000
  Cl      1.375093     -1.575884      0.000000
