    4
 0546.xyz Energy 6.99309e-06
   O      0.064850      0.377940      0.070968
   H      0.712125     -0.333288      0.052723
   H     -0.776975     -0.044651     -0.123691
  Cl      0.000000      0.000000     75.268244
