    4
 0560.xyz Energy -0.000493935
   O      0.080393      0.242572     -0.294578
   H     -0.653389     -0.375894     -0.229715
   H      0.572997      0.133322      0.524293
  Cl      0.000000      0.000000     17.597334
