    4
 0595.xyz Energy 9.8582e-07
   O     -0.090181      0.379362      0.005642
   H     -0.614155     -0.341129     -0.356970
   H      0.704336     -0.038233      0.351329
  Cl      0.000000      0.000000     64.989585
