    4
 0606.xyz Energy -1.60631e-05
   O     -0.298983      0.180887     -0.173117
   H      0.017750     -0.712588     -0.335985
   H      0.281233      0.531701      0.509102
  Cl      0.000000      0.000000     74.936301
