    4
 0609.xyz Energy 0.00153383
   O      0.037998     -0.318755      0.221430
   H      0.665389      0.025111     -0.421438
   H     -0.703387      0.293645      0.200008
  Cl      0.000000      0.000000      8.885440
