    4
 0623.xyz Energy 8.45273e-05
   O     -0.012686     -0.192283      0.339038
   H     -0.421214      0.653120      0.130369
   H      0.433900     -0.460837     -0.469406
  Cl      0.000000      0.000000     45.962018
