    4
 0628.xyz Energy 1.94696e-05
   O     -0.012686     -0.192283      0.339038
   H     -0.421214      0.653120      0.130369
   H      0.433900     -0.460837     -0.469406
  Cl      0.000000      0.000000     95.563684
