    4
 0629.xyz Energy -0.00255705
   O      0.119731     -0.010251     -0.370998
   H      0.628856     -0.232077      0.414323
   H     -0.748587      0.242328     -0.043325
  Cl      0.000000      0.000000      8.528989
