    4
 0642.xyz Energy -0.0201834
   O     -1.336000      1.572000      0.000000
   H     -0.575000      0.935000      0.000000
   H     -2.079000      0.963000      0.000000
  Cl      1.033663     -1.241726      0.000000
