    4
 0645.xyz Energy -0.0205802
   O     -1.336000      1.572000      0.000000
   H     -0.575000      0.935000      0.000000
   H     -2.079000      0.963000      0.000000
  Cl      1.013721     -1.214742      0.000000
