    4
 0651.xyz Energy 0.0335779
   O     -1.336000      1.572000      0.000000
   H     -0.575000      0.935000      0.000000
   H     -2.079000      0.963000      0.000000
  Cl      0.255921     -0.189342      0.000000
