   14
 0001.xyz Energy 0.00381753
   N     -1.195193      0.236880     -0.265203
   C      0.279985      0.486030     -0.098550
   H     -1.674986      1.090597     -0.596858
   H     -1.622300     -0.044954      0.633056
   H     -1.363525     -0.515862     -0.953521
   H      0.383229      1.310305      0.613828
   H      0.657698      0.809172     -1.073471
   C      1.091076     -0.726177      0.393439
   H      0.735293     -1.059365      1.371449
   H      2.147225     -0.461292      0.486419
   H      1.008538     -1.558776     -0.309468
   O     -0.053756      0.019059      4.432144
   H      0.818434     -0.151318      4.800080
   H      0.034894     -0.151232      3.489667
