   14
 0002.xyz Energy 0.00326448
   N     -1.233289      0.154640     -0.100077
   C      0.112430      0.007473      0.558240
   H     -1.975618      0.278035      0.608972
   H     -1.459443     -0.683455     -0.661477
   H     -1.245921      0.976691     -0.726823
   H      0.044805     -0.856027      1.227094
   H      0.271282      0.909546      1.157064
   C      1.292042     -0.182354     -0.412248
   H      1.157303     -1.084336     -1.014222
   H      2.227242     -0.280085      0.144628
   H      1.382799      0.674587     -1.084206
   O     -0.046035     -0.016284      4.283611
   H      0.847614     -0.365872      4.218026
   H     -0.116862      0.624368      3.569699
