   14
 0006.xyz Energy -0.00874164
   N      0.064805     -0.533558      1.125188
   C     -0.019233     -0.428925     -0.374142
   H      0.085239     -1.523767      1.422001
   H     -0.751019     -0.080237      1.569767
   H      0.921464     -0.073702      1.476478
   H     -0.926010     -0.960801     -0.678171
   H      0.852671     -0.953686     -0.776596
   C     -0.055378      1.008693     -0.923063
   H     -0.925127      1.548018     -0.539964
   H     -0.115557      0.994915     -2.014140
   H      0.846858      1.555232     -0.637798
   O      0.032059     -0.057076      4.140904
   H      0.386064      0.815986      4.334723
   H     -0.894972      0.090033      3.930921
