   14
 0008.xyz Energy -0.00388489
   N      0.667525      1.046887      0.115624
   C      0.213571     -0.270838     -0.453170
   H      1.453718      1.431345     -0.434942
   H      0.983287      0.933837      1.093495
   H     -0.103052      1.735923      0.102299
   H      1.081263     -0.937525     -0.438709
   H     -0.073947     -0.083865     -1.492369
   C     -0.957726     -0.931607      0.295704
   H     -0.687635     -1.135541      1.334723
   H     -1.223883     -1.878737     -0.180077
   H     -1.838524     -0.284926      0.285217
   O      0.018530      0.056110      3.828189
   H     -0.876316     -0.222370      3.611804
   H      0.582177     -0.668312      3.540723
