   14
 0010.xyz Energy -0.00661856
   N      0.354431      0.484199     -1.093097
   C      0.464766      0.003399      0.329104
   H      1.264177      0.842162     -1.429629
   H     -0.340074      1.246210     -1.168737
   H      0.059530     -0.285186     -1.717452
   H      0.809807      0.854030      0.924875
   H      1.234506     -0.774373      0.340599
   C     -0.839414     -0.552003      0.929113
   H     -1.619655      0.213034      0.935477
   H     -0.672570     -0.878072      1.958726
   H     -1.196710     -1.409196      0.353204
   O     -0.051672      0.007381      4.460481
   H      0.608343     -0.691841      4.436208
   H      0.211905      0.574680      5.191111
