   14
 0012.xyz Energy -0.00158789
   N     -0.118898      1.240373     -0.047645
   C      0.279281     -0.147330     -0.473946
   H      0.185527      1.938978     -0.746433
   H      0.313135      1.482315      0.859840
   H     -1.145255      1.311496      0.053699
   H      1.367138     -0.141995     -0.592722
   H     -0.184114     -0.323024     -1.449629
   C     -0.128194     -1.267206      0.500328
   H      0.332208     -1.115369      1.479652
   H      0.196560     -2.237768      0.117175
   H     -1.213309     -1.295575      0.626153
   O     -0.054817     -0.035690      3.622739
   H      0.852471     -0.353971      3.648151
   H      0.017701      0.920517      3.548373
