   14
 0014.xyz Energy -0.0126816
   N      0.399688      0.207675      1.162778
   C     -0.568208      0.030160      0.023627
   H     -0.104727      0.401360      2.044299
   H      1.041223      0.996986      0.978013
   H      0.967394     -0.645848      1.296744
   H     -1.154311      0.952100     -0.040248
   H     -1.232161     -0.794951      0.299162
   C      0.082032     -0.263764     -1.340251
   H      0.742950      0.553692     -1.638668
   H     -0.686878     -0.378845     -2.108233
   H      0.665636     -1.186767     -1.300467
   O     -0.045267     -0.024659      4.799638
   H     -0.133498      0.734142      5.384067
   H      0.852062     -0.342704      4.936640
