   14
 0016.xyz Energy 0.00348245
   N      0.369374      0.400229     -1.121745
   C      0.438193     -0.296344      0.210940
   H      1.252738      0.277004     -1.644729
   H      0.207015      1.413522     -0.996864
   H     -0.401073      0.017582     -1.695095
   H      1.289410      0.132508      0.748606
   H      0.642486     -1.351610      0.005417
   C     -0.831307     -0.174564      1.072860
   H     -1.048139      0.872614      1.297587
   H     -0.698259     -0.706189      2.018341
   H     -1.692765     -0.605767      0.557043
   O     -0.020831      0.039959      4.867493
   H      0.849535      0.021101      4.458558
   H     -0.518856     -0.655405      4.427537
