   14
 0019.xyz Energy -0.00897833
   N      0.887656     -0.621956     -0.616578
   C     -0.392115      0.137395     -0.389483
   H      0.986029     -0.883190     -1.612123
   H      0.903980     -1.488185     -0.052575
   H      1.705520     -0.047963     -0.351306
   H     -1.208479     -0.512429     -0.719404
   H     -0.355357      1.018832     -1.037000
   C     -0.636917      0.575568      1.065660
   H     -0.686354     -0.291822      1.728450
   H     -1.582266      1.118386      1.142636
   H      0.163761      1.233570      1.412158
   O     -0.000508     -0.020416      4.357797
   H     -0.248381      0.847183      4.690894
   H      0.256448     -0.523105      5.136513
