   14
 0022.xyz Energy -0.00392103
   N     -0.375997     -0.570146     -1.043308
   C      0.252026     -0.402423      0.314432
   H     -0.297343     -1.549944     -1.363994
   H      0.090274      0.035561     -1.739317
   H     -1.378470     -0.319053     -1.016140
   H      1.296755     -0.714360      0.220597
   H     -0.265588     -1.091356      0.988975
   C      0.188890      1.025216      0.886468
   H      0.708886      1.728500      0.231413
   H      0.664174      1.059338      1.869932
   H     -0.847687      1.353039      0.996702
   O      0.032705      0.056704      4.321114
   H     -0.920844     -0.068609      4.308364
   H      0.401678     -0.831513      4.313948
