   14
 0028.xyz Energy -0.00648261
   N      0.006058      0.373314      1.189761
   C      0.487799      0.189661     -0.224522
   H      0.693820      0.911484      1.743281
   H     -0.133677     -0.541629      1.650274
   H     -0.892438      0.884351      1.206645
   H      1.451553     -0.325457     -0.166195
   H      0.644202      1.191015     -0.637301
   C     -0.466202     -0.601776     -1.137143
   H     -0.628607     -1.609521     -0.747047
   H     -0.043292     -0.688345     -2.141093
   H     -1.433098     -0.098813     -1.216210
   O      0.054252      0.034642      4.111954
   H     -0.024475     -0.920743      4.033444
   H     -0.836719      0.370834      3.976797
