   14
 0039.xyz Energy -0.0269269
   N      0.884000      0.534000     -0.037000
   C      0.134000      0.404000     -1.301000
   H      1.232000      1.486000      0.112000
   H      1.679000     -0.111000      0.023000
   H      0.274000      0.324000      0.789000
   H      0.817000      0.680000     -2.109000
   H     -0.695000      1.116000     -1.259000
   C     -0.358000     -1.018000     -1.450000
   H      0.477000     -1.727000     -1.464000
   H     -0.912000     -1.130000     -2.388000
   H     -1.027000     -1.295000     -0.628000
   O     -0.547000      0.070000      2.108000
   H     -0.544000     -0.699000      2.717000
   H     -1.223000      0.624000      2.555000
