   11
 0000.xyz Energy 0.00850988
   N     -0.328903     -0.592175     -0.120525
   C      0.376494      0.677859      0.137950
   H     -0.113340     -0.956557     -1.057806
   H     -1.348827     -0.473027     -0.061874
   H     -0.062035     -1.314558      0.561283
   H      0.052155      1.399106     -0.614508
   H      1.448470      0.486035      0.061580
   H      0.107807      1.010656      1.142354
   O      0.029554      0.020986      3.554520
   H      0.226216     -0.775016      3.051700
   H     -0.695352      0.441891      3.082850
