   11
 0002.xyz Energy 0.00301935
   N     -0.649734     -0.038519      0.223018
   C      0.743742      0.044105     -0.255290
   H     -1.227228      0.714644     -0.173194
   H     -0.699585      0.039585      1.247369
   H     -1.084034     -0.932830     -0.040630
   H      1.146341      1.010339      0.054377
   H      0.729220     -0.044712     -1.343252
   H      1.301730     -0.777317      0.198240
   O      0.008084      0.064342      4.449000
   H      0.319330     -0.649148      5.013961
   H     -0.447662     -0.372215      3.723167
