   11
 0006.xyz Energy -0.00793233
   N     -0.169328     -0.639202      0.190062
   C      0.193836      0.731684     -0.217571
   H      0.548947     -1.317715     -0.095314
   H     -1.058805     -0.933189     -0.234534
   H     -0.274922     -0.711127      1.210648
   H      0.290462      0.742213     -1.304834
   H      1.141119      0.983183      0.263225
   H     -0.603528      1.400420      0.112240
   O      0.062150      0.020444      3.542390
   H     -0.730905      0.562832      3.497647
   H     -0.255656     -0.887365      3.544419
