   11
 0009.xyz Energy 0.00472424
   N      0.287018      0.208778     -0.589413
   C     -0.328534     -0.238986      0.674702
   H      1.296740      0.013896     -0.604212
   H      0.165103      1.220640     -0.727802
   H     -0.131914     -0.267010     -1.399377
   H      0.156285      0.299340      1.491244
   H     -0.165934     -1.314900      0.762621
   H     -1.393941     -0.005448      0.628425
   O      0.008750      0.038706      5.132072
   H      0.544102      0.001883      4.333847
   H     -0.683001     -0.616307      4.999562
