   11
 0011.xyz Energy -0.00431064
   N      0.110346     -0.320233      0.598874
   C     -0.126321      0.366576     -0.685519
   H     -0.662693     -0.159384      1.257870
   H      0.973968      0.012010      1.047930
   H      0.200188     -1.336633      0.469348
   H     -0.212085      1.435547     -0.481728
   H     -1.051777     -0.027756     -1.109541
   H      0.724237      0.158138     -1.337346
   O      0.041992      0.048183      3.694189
   H     -0.911010      0.116335      3.583448
   H      0.244427     -0.881188      3.551319
