   11
 0012.xyz Energy -0.0089782
   N      0.040095     -0.239328     -0.643808
   C     -0.045910      0.273957      0.736961
   H     -0.830287     -0.065143     -1.163263
   H      0.210417     -1.253580     -0.656643
   H      0.805791      0.209625     -1.163491
   H     -0.872417     -0.238481      1.232824
   H     -0.226491      1.349237      0.682897
   H      0.902879      0.059648      1.232588
   O      0.010787      0.050520      3.719781
   H     -0.758571     -0.526323      3.741280
   H      0.587337     -0.275639      4.417156
