   11
 0014.xyz Energy 0.00231823
   N      0.037961     -0.054913     -0.684776
   C     -0.043460      0.062847      0.783858
   H     -0.669565     -0.706854     -1.048256
   H      0.959625     -0.401047     -0.982445
   H     -0.114047      0.853514     -1.142566
   H      0.125536     -0.928586      1.208225
   H     -1.039541      0.432633      1.034539
   H      0.728344      0.764548      1.105894
   O      0.051559      0.002809      4.540250
   H     -0.536229      0.722279      4.291275
   H     -0.282212     -0.766862      4.069797
