   11
 0017.xyz Energy 0.00482251
   N     -0.024255     -0.146182      0.671876
   C      0.027773      0.167342     -0.769088
   H      0.325994      0.637230      1.238736
   H      0.547690     -0.970895      0.896836
   H     -0.986127     -0.343863      0.977887
   H      1.068850      0.366327     -1.030147
   H     -0.595400      1.046795     -0.942235
   H     -0.354907     -0.698263     -1.313199
   O     -0.047522      0.042678      4.514370
   H      0.343562     -0.129257      3.652620
   H      0.410795     -0.548221      5.119271
