   11
 0018.xyz Energy -0.00806616
   N     -0.161102      0.359679      0.563961
   C      0.184426     -0.411720     -0.645558
   H      0.627345      0.942315      0.874803
   H     -0.414098     -0.260573      1.344448
   H     -0.959919      0.984961      0.394156
   H      1.034085     -1.052198     -0.401728
   H      0.441936      0.299295     -1.432900
   H     -0.688243     -1.005944     -0.923266
   O     -0.038925     -0.042112      4.388414
   H      0.538365     -0.226322      5.135358
   H      0.079530      0.894811      4.206030
