   11
 0019.xyz Energy 0.00280578
   N      0.306786     -0.080545      0.610549
   C     -0.351177      0.092185     -0.698890
   H      0.677849     -1.033390      0.720713
   H     -0.349268      0.087466      1.384658
   H      1.093040      0.572802      0.723956
   H     -1.171890     -0.625164     -0.757417
   H      0.393101     -0.098628     -1.474392
   H     -0.721391      1.117705     -0.753892
   O     -0.044908     -0.038563      4.787971
   H      0.136730      0.885408      4.983951
   H      0.576143     -0.273261      4.092031
