   11
 0022.xyz Energy 0.00649926
   N      0.087327     -0.055324     -0.680212
   C     -0.099949      0.063327      0.778634
   H      0.960352     -0.549418     -0.907009
   H      0.129407      0.869153     -1.129045
   H     -0.685196     -0.576041     -1.116080
   H      0.747433      0.622511      1.179687
   H     -0.136387     -0.945657      1.193825
   H     -1.038136      0.593644      0.952829
   O     -0.026855      0.019912      4.436290
   H      0.043827      0.514654      3.614490
   H      0.382466     -0.830735      4.251961
