   11
 0024.xyz Energy -0.00414056
   N     -0.089048      0.001683     -0.682233
   C      0.101946     -0.001924      0.780945
   H      0.794483     -0.180953     -1.175948
   H     -0.445711      0.908515     -1.011364
   H     -0.761551     -0.719733     -0.974154
   H      0.822160      0.781028      1.025615
   H      0.479554     -0.985742      1.066034
   H     -0.866284      0.196423      1.244584
   O      0.043352      0.049027      4.161787
   H      0.227337     -0.895043      4.163359
   H     -0.915505      0.116786      4.128266
