   11
 0028.xyz Energy -0.00522718
   N      0.442634     -0.319714     -0.418609
   C     -0.506689      0.365972      0.479169
   H      0.110140     -0.312284     -1.391815
   H      0.574947     -1.302125     -0.144306
   H      1.366164      0.132820     -0.403618
   H     -1.461943     -0.158836      0.418728
   H     -0.603516      1.398213      0.137317
   H     -0.099048      0.324125      1.491024
   O     -0.007535      0.063655      4.546677
   H     -0.694078     -0.573831      4.764375
   H      0.813695     -0.436630      4.567107
