   11
 0032.xyz Energy 0.00106511
   N     -0.644645     -0.212285     -0.112882
   C      0.737921      0.242991      0.129224
   H     -1.014804     -0.731814      0.693846
   H     -0.696842     -0.833198     -0.931187
   H     -1.275649      0.581331     -0.285877
   H      1.354473     -0.640510      0.304942
   H      0.726481      0.894319      1.005239
   H      1.071442      0.784360     -0.758163
   O     -0.007303      0.057376      3.510674
   H     -0.700592     -0.525210      3.186537
   H      0.816517     -0.385579      3.286547
