   11
 0034.xyz Energy 0.00236311
   N     -0.419008     -0.222265     -0.498403
   C      0.479640      0.254434      0.570508
   H     -0.063157      0.033305     -1.428882
   H     -1.359980      0.182390     -0.405098
   H     -0.518637     -1.245725     -0.475537
   H      0.543428      1.341413      0.493086
   H      1.456431     -0.208125      0.416629
   H      0.049178     -0.046438      1.527562
   O      0.016345      0.061563      5.215136
   H     -0.458036     -0.569726      5.764279
   H      0.198572     -0.407524      4.395457
