   11
 0037.xyz Energy 0.00831344
   N      0.107062      0.338156      0.589544
   C     -0.122550     -0.387096     -0.674840
   H      0.721467     -0.193364      1.220204
   H     -0.775610      0.509251      1.089041
   H      0.550193      1.251233      0.422676
   H     -0.592090     -1.342037     -0.431515
   H      0.846537     -0.537039     -1.154579
   H     -0.777959      0.225480     -1.296904
   O      0.038532     -0.029788      4.583751
   H     -0.584447      0.685342      4.743773
   H     -0.027214     -0.212483      3.641721
