   11
 0041.xyz Energy -0.017365
   N      0.001000      0.014000      0.492000
   C     -0.034000      0.073000     -1.006000
   H      0.256000     -0.936000      0.807000
   H     -0.925000      0.253000      0.882000
   H      0.697000      0.683000      0.860000
   H     -0.774000     -0.638000     -1.384000
   H      0.953000     -0.182000     -1.399000
   H     -0.304000      1.084000     -1.321000
   O      0.244000     -0.083000      3.860000
   H      0.414000      0.571000      4.728000
   H      0.356000     -0.743000      4.733000
