   11
 0042.xyz Energy -0.0185001
   N      0.013000      0.022000      0.491000
   C     -0.040000      0.069000     -1.006000
   H      0.274000     -0.925000      0.811000
   H     -0.910000      0.262000      0.889000
   H      0.711000      0.696000      0.846000
   H     -0.781000     -0.647000     -1.369000
   H      0.944000     -0.186000     -1.410000
   H     -0.317000      1.076000     -1.327000
   O      0.054000      0.001000      2.839000
   H      0.210000      0.638000      3.723000
   H      0.134000     -0.673000      3.704000
