    2
 0004.xyz Energy -0.150758
   K      0.000000      0.000000      1.921000
  Br     -0.000000      0.000000     -1.779789
