    2
 0005.xyz Energy -0.151327
   K      0.000000      0.000000      1.921000
  Br      0.000000      0.000000     -1.764684
