    2
 0007.xyz Energy -0.159258
   K      0.000000      0.000000      1.921000
  Br      0.000000      0.000000     -1.553211
