    2
 0010.xyz Energy -0.170328
   K      0.000000      0.000000      1.921000
  Br      0.000000      0.000000     -0.782842
