    2
 0013.xyz Energy -0.144296
   K      0.000000      0.000000      1.921000
  Br     -0.000000      0.000000     -1.953500
