    2
 0016.xyz Energy -0.150022
   K      0.000000      0.000000      1.921000
  Br     -0.000000      0.000000     -1.799370
