    2
 0023.xyz Energy -0.170968
   K      0.000000      0.000000      1.921000
  Br      0.000000      0.000000     -1.188167
