    2
 0024.xyz Energy -0.173268
   K      0.000000      0.000000      1.921000
  Br      0.000000      0.000000     -0.890537
