    2
 0027.xyz Energy -0.134184
   K      0.000000      0.000000      1.921000
  Br     -0.000000      0.000000     -2.240500
