    2
 0035.xyz Energy -0.128963
   K      0.000000      0.000000      1.921000
  Br      0.000000      0.000000      6.241944
