    2
 0040.xyz Energy -0.0536387
   K      0.000000      0.000000      1.921000
  Br      0.000000      0.000000     11.822500
