    2
 0043.xyz Energy -0.0379776
   K      0.000000      0.000000      1.921000
  Br      0.000000      0.000000     15.872389
