    2
 0044.xyz Energy -0.0343532
   K      0.000000      0.000000      1.921000
  Br      0.000000      0.000000     17.339278
