    2
 0046.xyz Energy -0.0285769
   K      0.000000      0.000000      1.921000
  Br      0.000000      0.000000     20.448444
