    2
 0048.xyz Energy -0.0242038
   K      0.000000      0.000000      1.921000
  Br      0.000000      0.000000     23.791463
