    2
 0049.xyz Energy -0.0224003
   K      0.000000      0.000000      1.921000
  Br      0.000000      0.000000     25.550667
