    2
 0051.xyz Energy -0.0193703
   K      0.000000      0.000000      1.921000
  Br      0.000000      0.000000     29.244463
