    2
 0059.xyz Energy -0.0119089
   K      0.000000      0.000000      1.921000
  Br      0.000000      0.000000     46.358167
