    2
 0061.xyz Energy -0.0107341
   K      0.000000      0.000000      1.921000
  Br      0.000000      0.000000     51.221222
