    2
 0065.xyz Energy -0.00885994
   K      0.000000      0.000000      1.921000
  Br      0.000000      0.000000     61.648889
