    2
 0066.xyz Energy -0.00846953
   K      0.000000      0.000000      1.921000
  Br      0.000000      0.000000     64.401963
