    2
 0067.xyz Energy -0.00810481
   K      0.000000      0.000000      1.921000
  Br      0.000000      0.000000     67.213500
