    2
 0071.xyz Energy 1.70947
   K      0.000000      0.000000      1.921000
  Br      0.000000      0.000000      0.629500
