    2
 0072.xyz Energy 217.493
   K      0.000000      0.000000      1.921000
  Br      0.000000      0.000000      1.634000
