    2
 0076.xyz Energy -0.106174
   K      0.000000      0.000000      1.921000
  Br      0.000000      0.000000      7.087000
