    2
 0078.xyz Energy -0.0607855
   K      0.000000      0.000000      1.921000
  Br      0.000000      0.000000     10.674500
