    2
 0084.xyz Energy -0.0230542
   K      0.000000      0.000000      1.921000
  Br      0.000000      0.000000     24.881000
