    2
 0095.xyz Energy -0.00847746
   K      0.000000      0.000000      1.921000
  Br      0.000000      0.000000     64.343500
