    2
 0096.xyz Energy -0.00791349
   K      0.000000      0.000000      1.921000
  Br      0.000000      0.000000     68.792000
