    2
 0098.xyz Energy -0.00694477
   K      0.000000      0.000000      1.921000
  Br      0.000000      0.000000     78.119500
