    2
 0101.xyz Energy -0.00579821
   K      0.000000      0.000000      1.921000
  Br      0.000000      0.000000     93.187000
