    2
 0102.xyz Energy -0.00547943
   K      0.000000      0.000000      1.921000
  Br      0.000000      0.000000     98.496500
