    2
 0103.xyz Energy -0.00518658
   K      0.000000      0.000000      1.921000
  Br      0.000000      0.000000    103.949500
