    2
 0110.xyz Energy -0.156679
   K      0.000000      0.000000      1.921000
  Br      0.000000      0.000000     -1.622571
