    2
 0116.xyz Energy 0.182608
   K      0.000000      0.000000      1.921000
  Br      0.000000      0.000000      0.081857
