    2
 0120.xyz Energy 10.9669
   K      0.000000      0.000000      1.921000
  Br      0.000000      0.000000      2.741000
