    2
 0121.xyz Energy 0.430841
   K      0.000000      0.000000      1.921000
  Br      0.000000      0.000000      3.596143
