    2
 0122.xyz Energy -0.164754
   K      0.000000      0.000000      1.921000
  Br      0.000000      0.000000      4.527429
