    2
 0126.xyz Energy -0.0754989
   K      0.000000      0.000000      1.921000
  Br      0.000000      0.000000      9.014000
