    2
 0127.xyz Energy -0.0633589
   K      0.000000      0.000000      1.921000
  Br      0.000000      0.000000     10.326000
