    2
 0131.xyz Energy -0.0367533
   K      0.000000      0.000000      1.921000
  Br      0.000000      0.000000     16.335429
