    2
 0133.xyz Energy -0.0296202
   K      0.000000      0.000000      1.921000
  Br      0.000000      0.000000     19.797000
