    2
 0134.xyz Energy -0.026845
   K      0.000000      0.000000      1.921000
  Br      0.000000      0.000000     21.642000
