    2
 0135.xyz Energy -0.0244594
   K      0.000000      0.000000      1.921000
  Br      0.000000      0.000000     23.563143
