    2
 0137.xyz Energy -0.0205843
   K      0.000000      0.000000      1.921000
  Br      0.000000      0.000000     27.633857
