    2
 0138.xyz Energy -0.0189954
   K      0.000000      0.000000      1.921000
  Br      0.000000      0.000000     29.783429
