    2
 0143.xyz Energy -0.0133125
   K      0.000000      0.000000      1.921000
  Br      0.000000      0.000000     41.673429
