    2
 0145.xyz Energy -0.0117491
   K      0.000000      0.000000      1.921000
  Br      0.000000      0.000000     46.962429
