    2
 0150.xyz Energy -0.00887948
   K      0.000000      0.000000      1.921000
  Br      0.000000      0.000000     61.517429
