    2
 0151.xyz Energy -0.00843512
   K      0.000000      0.000000      1.921000
  Br      0.000000      0.000000     64.656857
