    9
 0001.xyz Energy 0.115164
   N      0.060738     -0.039796     -0.684180
   C     -0.069520      0.045542      0.783176
   H      0.173825     -1.013831     -0.994350
   H      0.877176      0.488430     -1.019272
   H     -0.769546      0.341115     -1.156888
   H      0.837779     -0.371897      1.223789
   H     -0.949015     -0.531835      1.074528
   H     -0.185848      1.098355      1.047425
  Li      0.000000      0.000000      4.060000
