    9
 0003.xyz Energy 0.114904
   N     -0.512108      0.053715      0.456328
   C      0.586198     -0.061496     -0.522361
   H     -1.085148     -0.800017      0.478776
   H     -1.135906      0.839208      0.228830
   H     -0.152025      0.209847      1.407055
   H      0.141410     -0.225167     -1.505703
   H      1.208994     -0.908157     -0.227314
   H      1.153928      0.870644     -0.498449
  Li      0.000000      0.000000      4.880000
