    9
 0005.xyz Energy 0.0950468
   N     -0.096517      0.472491     -0.490726
   C      0.110477     -0.540847      0.561739
   H     -0.115047      1.422685     -0.097630
   H     -0.986887      0.324187     -0.983806
   H      0.654664      0.442563     -1.192688
   H     -0.714780     -0.458502      1.271497
   H      1.066417     -0.330026      1.044952
   H      0.120408     -1.522035      0.083257
  Li      0.000000      0.000000      5.160000
