    9
 0006.xyz Energy 0.0915126
   N     -0.361206     -0.165991     -0.561562
   C      0.413463      0.190000      0.642822
   H     -1.261338     -0.597607     -0.314156
   H      0.150588     -0.834590     -1.152258
   H     -0.562990      0.663033     -1.135950
   H      0.594291     -0.727034      1.206681
   H     -0.180027      0.897960      1.224478
   H      1.352079      0.640862      0.314957
  Li      0.000000      0.000000      5.360000
