    9
 0009.xyz Energy 0.104365
   N      0.261386      0.056576     -0.633917
   C     -0.299211     -0.064749      0.725639
   H      0.396827      1.041578     -0.896909
   H     -0.360071     -0.368197     -1.334802
   H      1.174510     -0.411339     -0.705888
   H     -1.262365      0.448864      0.736746
   H      0.402730      0.402144      1.419217
   H     -0.418527     -1.127692      0.944016
  Li      0.000000      0.000000      4.600000
