    9
 0014.xyz Energy 0.153948
   N      0.639928      0.013786      0.252342
   C     -0.732516     -0.015786     -0.288865
   H      1.340266     -0.016967     -0.500200
   H      0.815865     -0.788254      0.871744
   H      0.809262      0.869106      0.797935
   H     -0.848661     -0.942379     -0.854128
   H     -0.855842      0.855956     -0.934324
   H     -1.424856      0.019073      0.554476
  Li      0.000000      0.000000      3.360000
