    9
 0017.xyz Energy 0.127453
   N      0.119467     -0.122042      0.666490
   C     -0.136748      0.139687     -0.762928
   H      0.793716     -0.888416      0.792169
   H     -0.743753     -0.385324      1.159859
   H      0.503562      0.708291      1.136530
   H     -0.540926     -0.774097     -1.202503
   H      0.812541      0.412484     -1.227893
   H     -0.855791      0.958471     -0.828840
  Li      0.000000      0.000000      4.540000
