    9
 0020.xyz Energy 0.0971173
   N     -0.638901     -0.179072     -0.181970
   C      0.731350      0.204971      0.208293
   H     -0.701491     -1.184348     -0.389911
   H     -0.946207      0.330204     -1.021065
   H     -1.313023      0.024447      0.567737
   H      1.395271     -0.034709     -0.624383
   H      0.997332     -0.366551      1.099571
   H      0.731707      1.276957      0.414736
  Li      0.000000      0.000000      5.200000
