    9
 0025.xyz Energy 0.114436
   N     -0.513817     -0.025842      0.456836
   C      0.588167      0.029592     -0.522929
   H     -0.659931      0.886501      0.908520
   H     -0.321201     -0.711292      1.199087
   H     -1.399924     -0.295090      0.009354
   H      1.495326      0.318939      0.010857
   H      0.324899      0.770639     -1.280095
   H      0.692379     -0.963209     -0.964810
  Li      0.000000      0.000000      4.860000
