    9
 0027.xyz Energy 0.0891262
   N      0.278876      0.492604     -0.391081
   C     -0.319239     -0.563875      0.447663
   H     -0.381332      1.265487     -0.547659
   H      0.553462      0.128616     -1.313033
   H      1.120295      0.888564      0.048405
   H     -1.202686     -0.941495     -0.070518
   H     -0.587739     -0.116893      1.406764
   H      0.426717     -1.350507      0.576251
  Li      0.000000      0.000000      5.600000
