    9
 0028.xyz Energy 0.150175
   N      0.112018      0.162431      0.659123
   C     -0.128220     -0.185945     -0.754490
   H      0.846861     -0.427673      1.070851
   H     -0.737721      0.038563      1.225234
   H      0.409857      1.141907      0.758298
   H     -0.439598     -1.231501     -0.792462
   H      0.805654     -0.034384     -1.299164
   H     -0.913809      0.471630     -1.131609
  Li      0.000000      0.000000      3.860000
