    9
 0032.xyz Energy 0.109521
   N      0.209620     -0.473139      0.453403
   C     -0.239943      0.541592     -0.519016
   H      1.088845     -0.915080      0.154422
   H     -0.489075     -1.219435      0.566304
   H      0.371507     -0.057996      1.380424
   H     -0.393502      0.041171     -1.476922
   H      0.540343      1.301424     -0.593642
   H     -1.171898      0.971176     -0.146605
  Li      0.000000      0.000000      5.100000
