    9
 0033.xyz Energy 0.0951421
   N      0.065365     -0.007680     -0.684867
   C     -0.074836      0.008788      0.783960
   H     -0.837634      0.155328     -1.149367
   H      0.425284     -0.912186     -1.016842
   H      0.715380      0.721243     -1.007468
   H     -0.773152     -0.782942      1.061639
   H     -0.458479      0.989449      1.071856
   H      0.912016     -0.168892      1.215617
  Li      0.000000      0.000000      5.100000
