    9
 0034.xyz Energy 0.105941
   N     -0.268222      0.272713      0.571891
   C      0.307043     -0.312174     -0.654632
   H      0.464972      0.648866      1.187255
   H     -0.794454     -0.428172      1.110148
   H     -0.913584      1.043029      0.352712
   H      0.978882     -1.119195     -0.356413
   H      0.849728      0.477150     -1.178294
   H     -0.516984     -0.691513     -1.261966
  Li      0.000000      0.000000      5.340000
