    8
 0021.xyz Energy -0.110602
   C     -1.131455     -0.768510     -0.496008
   C      0.090223      0.061950      0.033217
   O      0.871145      0.571771     -0.859568
   O      0.180259      0.142066      1.321018
   H     -1.154375     -0.781816     -1.592541
   H     -1.064302     -1.797060     -0.111220
   H     -2.063398     -0.332796     -0.106420
   K      0.000000      0.000000      5.480000
