    8
 0022.xyz Energy -0.0908109
   C      0.589438     -1.130799      0.700486
   C     -0.048518      0.090865     -0.049709
   O     -0.805580      0.866813      0.651420
   O      0.257885      0.183696     -1.302887
   H      0.300694     -1.138789      1.758621
   H      0.262808     -2.063579      0.217040
   H      1.684701     -1.080970      0.610719
   K      0.000000      0.000000      5.740000
