    8
 0025.xyz Energy -0.120054
   C     -1.377053     -0.026064     -0.468903
   C      0.110027      0.000472      0.031230
   O      1.006991     -0.403345     -0.804956
   O      0.272460      0.427525      1.241271
   H     -1.438984     -0.382959     -1.504218
   H     -1.968602     -0.681007      0.188063
   H     -1.803816      0.985103     -0.394351
   K      0.000000      0.000000      5.060000
