    8
 0029.xyz Energy -0.0833181
   C     -1.069040      0.684113      0.711313
   C      0.087936     -0.051764     -0.051664
   O      1.285506      0.144578      0.388899
   O     -0.292434     -0.780322     -1.050402
   H     -0.677553      1.269150      1.552477
   H     -1.601024      1.345780      0.011544
   H     -1.794067     -0.058548      1.075913
   K      0.000000      0.000000      6.080000
