    8
 0030.xyz Energy -0.0921051
   C     -0.431523     -0.689027      1.206587
   C      0.029925      0.058600     -0.093552
   O     -0.630004      1.121368     -0.412676
   O      1.031240     -0.481603     -0.708778
   H     -1.271520     -0.169463      1.683605
   H     -0.726322     -1.717012      0.948081
   H      0.414288     -0.756638      1.906713
   K      0.000000      0.000000      5.360000
