    8
 0035.xyz Energy -0.120829
   C     -0.542987      1.039401     -0.861182
   C      0.041435     -0.078150      0.072506
   O      0.141396      0.212088      1.326536
   O      0.363476     -1.178213     -0.526750
   H     -0.807667      1.935359     -0.286473
   H      0.201387      1.295062     -1.629966
   H     -1.431265      0.651030     -1.381062
   K      0.000000      0.000000      5.180000
