    8
 0039.xyz Energy -0.0794498
   C     -0.711286      1.002099      0.778905
   C      0.057186     -0.081693     -0.056013
   O      0.694026     -0.982143      0.615139
   O     -0.033015      0.051320     -1.339418
   H     -0.604750      0.819924      1.855265
   H     -0.318286      1.998622      0.527954
   H     -1.775228      0.989266      0.499609
   K      0.000000      0.000000      6.500000
