    8
 0041.xyz Energy -0.110081
   C      0.477808     -1.373507     -0.044740
   C     -0.038232      0.107370      0.009561
   O     -0.476747      0.523817      1.150217
   O      0.032620      0.752514     -1.109244
   H      0.403063     -1.853848      0.938506
   H     -0.114120     -1.936644     -0.781613
   H      1.522884     -1.381992     -0.388087
   K      0.000000      0.000000      5.260000
