    8
 0046.xyz Energy -0.126799
   C     -0.975487      0.512676     -0.949954
   C      0.074663     -0.045939      0.073461
   O      0.016164     -1.310393      0.327538
   O      0.890371      0.834539      0.555472
   H     -1.622374     -0.288160     -1.328485
   H     -1.585692      1.284696     -0.457897
   H     -0.447543      0.995273     -1.785729
   K      0.000000      0.000000      4.540000
