    8
 0048.xyz Energy -0.0965071
   C     -1.112172      0.878145      0.329783
   C      0.086029     -0.068318     -0.031830
   O      0.208797     -0.394015     -1.275080
   O      0.824707     -0.422230      0.969198
   H     -1.684817      1.149631     -0.565459
   H     -1.768127      0.371836      1.053564
   H     -0.724791      1.785240      0.816876
   K      0.000000      0.000000      5.700000
