    8
 0049.xyz Energy -0.0928296
   C     -1.110958     -0.018973     -0.939275
   C      0.083893     -0.001738      0.077720
   O     -0.146513     -0.499039      1.246662
   O      1.179133      0.517144     -0.374128
   H     -1.999609     -0.485004     -0.496329
   H     -1.342544      1.012629     -1.243661
   H     -0.810587     -0.568220     -1.843846
   K      0.000000      0.000000      6.360000
