    8
 0054.xyz Energy -0.0806316
   C      1.065414      0.630869      0.764016
   C     -0.085210     -0.052804     -0.055069
   O     -0.724354     -1.007115      0.534511
   O     -0.265424      0.421040     -1.245006
   H      1.151975      0.191520      1.765298
   H      2.015302      0.513914      0.221319
   H      0.863793      1.709370      0.843570
   K      0.000000      0.000000      6.360000
