    8
 0055.xyz Energy -0.0942914
   C     -0.695261     -0.352284      1.228548
   C      0.050266      0.024805     -0.099697
   O     -0.424968     -0.476974     -1.190197
   O      1.071564      0.804443      0.048870
   H     -1.556775     -1.000629      1.027228
   H      0.006186     -0.862487      1.905416
   H     -1.027334      0.567307      1.732755
   K      0.000000      0.000000      5.360000
