    8
 0058.xyz Energy -0.103725
   C     -0.956019      0.291716     -1.057238
   C      0.076478     -0.028164      0.080245
   O      0.634997     -1.191517      0.041681
   O      0.253121      0.920845      0.941137
   H     -1.044391     -0.547784     -1.757608
   H     -1.936340      0.507095     -0.606608
   H     -0.636148      1.196716     -1.594640
   K      0.000000      0.000000      5.660000
