    8
 0059.xyz Energy -0.0966373
   C     -0.572232      0.561352     -1.214191
   C      0.044000     -0.038761      0.098199
   O      0.206074      0.777788      1.085012
   O      0.325947     -1.299876      0.042963
   H     -0.800163      1.627246     -1.091703
   H      0.137622      0.423993     -2.043483
   H     -1.488052      0.008894     -1.471501
   K      0.000000      0.000000      6.160000
