    6
 0002.xyz Energy -0.146423
   H      0.095354     -0.486236      0.896129
   N     -0.000001      0.000003     -0.000005
   H      0.246646      0.986645      0.119100
   H      0.625781     -0.427556     -0.688583
   H     -0.967774     -0.072890     -0.326578
  Cl      0.000000      0.000000      3.880000
