    6
 0004.xyz Energy -0.148457
   H     -0.943018      0.373794      0.139854
   N      0.000005     -0.000002     -0.000001
   H      0.556606      0.670433     -0.537769
   H      0.442485     -0.159024      0.909654
   H     -0.056145     -0.885175     -0.511728
  Cl      0.000000      0.000000      3.840000
