    6
 0006.xyz Energy -0.170412
   H     -0.007374     -0.106974     -1.018365
   N      0.000000      0.000001      0.000006
   H     -0.787737     -0.515293      0.403026
   H      0.877844     -0.369866      0.375688
   H     -0.082732      0.992125      0.239573
  Cl      0.000000      0.000000      3.140000
