    6
 0008.xyz Energy -0.165816
   H     -0.068804      0.036855     -1.021015
   N      0.000000     -0.000000      0.000006
   H     -0.603487     -0.746688      0.356016
   H      0.969845     -0.186938      0.270198
   H     -0.297559      0.896774      0.394724
  Cl      0.000000      0.000000      3.260000
