    6
 0012.xyz Energy -0.152571
   H      0.510431      0.699259     -0.546864
   N     -0.000003     -0.000004      0.000003
   H     -0.344394      0.427552      0.864337
   H     -0.791933     -0.349527     -0.547014
   H      0.625934     -0.777231      0.229500
  Cl      0.000000      0.000000      3.720000
