    6
 0016.xyz Energy -0.155299
   H      0.629189     -0.359285      0.723603
   N     -0.000003      0.000002     -0.000004
   H     -0.573843     -0.765829     -0.364275
   H     -0.607032      0.719888      0.402275
   H      0.551734      0.405199     -0.761548
  Cl      0.000000      0.000000      3.600000
