    6
 0022.xyz Energy -0.151877
   H      0.673991     -0.770503      0.024993
   N     -0.000004      0.000004     -0.000000
   H      0.500689      0.892613      0.032257
   H     -0.547425     -0.053280     -0.863735
   H     -0.627204     -0.068888      0.806487
  Cl      0.000000      0.000000      3.700000
