    6
 0023.xyz Energy -0.146996
   H      0.959219      0.354752      0.051130
   N     -0.000005     -0.000002     -0.000000
   H     -0.070210     -0.686281     -0.756687
   H     -0.247110     -0.445072      0.888482
   H     -0.641827      0.776628     -0.182920
  Cl      0.000000      0.000000      3.860000
