    6
 0025.xyz Energy -0.14528
   H     -0.110128     -0.080340      1.014880
   N      0.000001      0.000000     -0.000006
   H      0.755740     -0.616848     -0.311193
   H     -0.873432     -0.271119     -0.460612
   H      0.227812      0.968301     -0.242998
  Cl      0.000000      0.000000      3.980000
