    6
 0027.xyz Energy -0.152867
   H     -0.739561      0.688608     -0.165630
   N      0.000004     -0.000004      0.000001
   H      0.896326      0.482139      0.112373
   H     -0.211398     -0.530074      0.850226
   H      0.054576     -0.640621     -0.796981
  Cl      0.000000      0.000000      3.700000
