    2
 0000.xyz Energy 0.00441693
   K    -29.797000     39.981000      8.569000
   K     48.757000    -48.854000     -8.496000
