    2
 0003.xyz Energy 0.0774085
   K     -2.773000      0.042000      0.000000
   K      4.045844      0.015983      0.000000
