    2
 0005.xyz Energy 0.0740046
   K     -2.773000      0.042000      0.000000
   K      4.361815      0.014778      0.000000
