    2
 0006.xyz Energy 0.0741098
   K     -2.773000      0.042000      0.000000
   K      4.351622      0.014817      0.000000
