    2
 0007.xyz Energy 0.0753952
   K     -2.773000      0.042000      0.000000
   K      4.229311      0.015283      0.000000
