    2
 0009.xyz Energy 0.0821585
   K     -2.773000      0.042000      0.000000
   K      3.648333      0.017500      0.000000
