    2
 0014.xyz Energy 0.0785713
   K     -2.773000      0.042000      0.000000
   K      3.944127      0.016371      0.000000
