    2
 0015.xyz Energy 0.0772892
   K     -2.773000      0.042000      0.000000
   K      4.056453      0.015943      0.000000
