    2
 0017.xyz Energy 0.0797619
   K     -2.773000      0.042000      0.000000
   K      3.843033      0.016757      0.000000
