    2
 0018.xyz Energy 0.0838535
   K     -2.773000      0.042000      0.000000
   K      3.517286      0.018000      0.000000
