    2
 0021.xyz Energy 0.0813905
   K     -2.773000      0.042000      0.000000
   K     -9.255489      0.066733      0.000000
