    2
 0024.xyz Energy 0.043246
   K     -2.773000      0.042000      0.000000
   K    -15.004111      0.088667      0.000000
