    2
 0025.xyz Energy 0.0368112
   K     -2.773000      0.042000      0.000000
   K    -17.144556      0.096833      0.000000
