    2
 0026.xyz Energy 0.0318263
   K     -2.773000      0.042000      0.000000
   K    -19.397119      0.105428      0.000000
