    2
 0029.xyz Energy 0.0219977
   K     -2.773000      0.042000      0.000000
   K    -26.827519      0.133778      0.000000
