    2
 0035.xyz Energy 0.0126165
   K     -2.773000      0.042000      0.000000
   K    -44.715519      0.202028      0.000000
