    2
 0036.xyz Energy 0.0116772
   K     -2.773000      0.042000      0.000000
   K    -48.089267      0.214900      0.000000
