    2
 0039.xyz Energy 0.00943092
   K     -2.773000      0.042000      0.000000
   K    -58.883222      0.256083      0.000000
