    2
 0040.xyz Energy 0.00882947
   K     -2.773000      0.042000      0.000000
   K    -62.705444      0.270667      0.000000
