    2
 0041.xyz Energy 0.00828556
   K     -2.773000      0.042000      0.000000
   K    -66.639785      0.285678      0.000000
