    2
 0044.xyz Energy 0.00693156
   K     -2.773000      0.042000      0.000000
   K    -79.115519      0.333278      0.000000
