    2
 0045.xyz Energy 0.00655522
   K     -2.773000      0.042000      0.000000
   K    -83.498333      0.350000      0.000000
