    2
 0049.xyz Energy 0.00532486
   K     -2.773000      0.042000      0.000000
   K   -102.150778      0.421167      0.000000
