    2
 0051.xyz Energy 0.00483808
   K     -2.773000      0.042000      0.000000
   K   -112.149711      0.459317      0.000000
