    2
 0052.xyz Energy 0.00461981
   K     -2.773000      0.042000      0.000000
   K   -117.317356      0.479033      0.000000
