    2
 0054.xyz Energy 0.00422608
   K     -2.773000      0.042000      0.000000
   K   -127.989000      0.519750      0.000000
