    2
 0058.xyz Energy 0.222611
   K     -2.773000      0.042000      0.000000
   K     -0.301816      0.032571      0.000000
