    2
 0061.xyz Energy 0.940614
   K     -2.773000      0.042000      0.000000
   K     -4.345571      0.048000      0.000000
