    2
 0062.xyz Energy 0.16107
   K     -2.773000      0.042000      0.000000
   K     -5.985539      0.054257      0.000000
