    2
 0064.xyz Energy 0.0761702
   K     -2.773000      0.042000      0.000000
   K     -9.703547      0.068443      0.000000
