    2
 0066.xyz Energy 0.0470842
   K     -2.773000      0.042000      0.000000
   K    -14.005653      0.084857      0.000000
