    2
 0067.xyz Energy 0.0388899
   K     -2.773000      0.042000      0.000000
   K    -16.375743      0.093900      0.000000
