    2
 0068.xyz Energy 0.0328233
   K     -2.773000      0.042000      0.000000
   K    -18.891857      0.103500      0.000000
