    2
 0069.xyz Energy 0.0281727
   K     -2.773000      0.042000      0.000000
   K    -21.553996      0.113657      0.000000
