    2
 0070.xyz Energy 0.0245092
   K     -2.773000      0.042000      0.000000
   K    -24.362159      0.124371      0.000000
