    2
 0074.xyz Energy 0.0154356
   K     -2.773000      0.042000      0.000000
   K    -37.055057      0.172800      0.000000
