    2
 0077.xyz Energy 0.0116724
   K     -2.773000      0.042000      0.000000
   K    -48.107988      0.214971      0.000000
