    2
 0078.xyz Energy 0.0107312
   K     -2.773000      0.042000      0.000000
   K    -52.084347      0.230143      0.000000
