    2
 0079.xyz Energy 0.00990331
   K     -2.773000      0.042000      0.000000
   K    -56.206731      0.245871      0.000000
