    2
 0081.xyz Energy 0.00851901
   K     -2.773000      0.042000      0.000000
   K    -64.889571      0.279000      0.000000
