    2
 0082.xyz Energy 0.00793635
   K     -2.773000      0.042000      0.000000
   K    -69.450029      0.296400      0.000000
