    2
 0086.xyz Energy 0.00612617
   K     -2.773000      0.042000      0.000000
   K    -89.152102      0.371571      0.000000
