    2
 0088.xyz Energy 0.00544942
   K     -2.773000      0.042000      0.000000
   K    -99.879286      0.412500      0.000000
