    2
 0089.xyz Energy 0.00515317
   K     -2.773000      0.042000      0.000000
   K   -105.461914      0.433800      0.000000
