    2
 0091.xyz Energy 0.00463
   K     -2.773000      0.042000      0.000000
   K   -117.065245      0.478071      0.000000
