    2
 0092.xyz Energy 0.00439831
   K     -2.773000      0.042000      0.000000
   K   -123.085947      0.501043      0.000000
