    2
 0093.xyz Energy 0.00418386
   K     -2.773000      0.042000      0.000000
   K   -129.252673      0.524571      0.000000
