    2
 0094.xyz Energy 0.00398497
   K     -2.773000      0.042000      0.000000
   K   -135.565424      0.548657      0.000000
