    2
 0095.xyz Energy 0.00380013
   K     -2.773000      0.042000      0.000000
   K   -142.024200      0.573300      0.000000
