    2
 0096.xyz Energy 0.00362805
   K     -2.773000      0.042000      0.000000
   K   -148.629000      0.598500      0.000000
