    9
 0020.xyz Energy -0.176216
   N      0.105879     -0.306277      0.606926
   C     -0.121196      0.350580     -0.694749
   H      0.689439     -1.147075      0.505663
   H     -0.780842     -0.595424      1.040515
   H      0.581973      0.323298      1.266388
   H     -0.626625     -0.364842     -1.346132
   H      0.852159      0.631987     -1.101138
   H     -0.743257      1.230644     -0.520677
   F      0.000000      0.000000      3.580000
