    9
 0024.xyz Energy -0.130037
   N      0.011111     -0.044507     -0.686491
   C     -0.012732      0.050948      0.785820
   H     -0.837232      0.362013     -1.102175
   H      0.069804     -1.023077     -0.997676
   H      0.819032      0.454755     -1.081358
   H     -0.888120     -0.495501      1.141736
   H     -0.075247      1.108086      1.050986
   H      0.909078     -0.394889      1.164328
   F      0.000000      0.000000      3.940000
