    9
 0028.xyz Energy -0.171118
   N     -0.064693     -0.577342      0.368601
   C      0.074066      0.660878     -0.421930
   H      0.672526     -0.651151      1.081902
   H     -0.002030     -1.412303     -0.228721
   H     -0.970386     -0.611993      0.854849
   H      1.049885      0.637460     -0.910618
   H     -0.000760      1.505917      0.265145
   H     -0.732821      0.679941     -1.157011
   F      0.000000      0.000000      3.440000
