    9
 0029.xyz Energy -0.125714
   N     -0.332383     -0.355511     -0.486321
   C      0.380464      0.406954      0.556693
   H     -1.301838     -0.029018     -0.592601
   H     -0.366622     -1.358263     -0.260053
   H      0.128299     -0.260240     -1.400987
   H     -0.154455      0.265983      1.497743
   H      0.382514      1.457487      0.259813
   H      1.397379      0.015069      0.620584
   F      0.000000      0.000000      4.160000
