    9
 0030.xyz Energy -0.160297
   N      0.398202     -0.232037      0.510851
   C     -0.455813      0.265623     -0.584765
   H      0.698083      0.533010      1.129328
   H      1.246226     -0.686998      0.147885
   H     -0.099042     -0.921395      1.090034
   H      0.125781      0.989021     -1.159247
   H     -1.333944      0.734794     -0.136964
   H     -0.739161     -0.589146     -1.201902
   F      0.000000      0.000000      3.800000
