    9
 0031.xyz Energy -0.120339
   N     -0.254286      0.534973     -0.350025
   C      0.291067     -0.612382      0.400674
   H     -1.178617      0.810937      0.006618
   H     -0.361613      0.312631     -1.348486
   H      0.361969      1.355508     -0.280230
   H     -0.404403     -1.446166      0.287924
   H      0.380671     -0.314624      1.447131
   H      1.267275     -0.855272     -0.023349
   F      0.000000      0.000000      4.360000
