    9
 0034.xyz Energy -0.144132
   N      0.304785     -0.301220     -0.538282
   C     -0.348883      0.344816      0.616160
   H      0.869261      0.371201     -1.073963
   H     -0.387213     -0.706602     -1.182242
   H      0.930273     -1.060574     -0.238172
   H     -0.995386      1.136856      0.233676
   H      0.434184      0.752882      1.258070
   H     -0.929203     -0.416753      1.140578
   F      0.000000      0.000000      3.500000
