    9
 0040.xyz Energy -0.138664
   N      0.073129     -0.684125     -0.000122
   C     -0.083706      0.783112      0.000127
   H      0.703197     -0.993536     -0.751798
   H     -0.829473     -1.157460     -0.138479
   H      0.465075     -1.019261      0.889811
   H     -0.501296      1.074460     -0.965441
   H      0.903423      1.224476      0.150243
   H     -0.759702      1.046547      0.815851
   F      0.000000      0.000000      3.900000
