    9
 0047.xyz Energy -0.118942
   N      0.035264     -0.070129     -0.683530
   C     -0.040373      0.080288      0.782429
   H     -0.027939      0.840449     -1.157439
   H     -0.729658     -0.658176     -1.039866
   H      0.921020     -0.507384     -0.970172
   H     -0.997716      0.547249      1.021234
   H      0.793362      0.710967      1.096900
   H      0.031972     -0.915285      1.224439
   F      0.000000      0.000000      4.300000
