    9
 0052.xyz Energy -0.128736
   N      0.031983      0.040778     -0.686068
   C     -0.036597     -0.046681      0.785336
   H      0.865472     -0.438264     -1.051515
   H      0.073812      1.018758     -1.001799
   H     -0.791186     -0.391455     -1.125939
   H      0.859891      0.426651      1.190124
   H     -0.078607     -1.103572      1.055480
   H     -0.937733      0.477464      1.109372
   F      0.000000      0.000000      3.980000
