   10
 0003.xyz Energy 0.137495
   H     -0.861310      0.284098      0.475393
   N      0.000005     -0.000002     -0.000003
   H      0.764363     -0.049910      0.679518
   H     -0.134903     -0.919423     -0.430132
   H      0.231784      0.685257     -0.724742
   H     -0.396568     -0.875033      4.114423
   N      0.000002      0.000005      3.759998
   H      1.021892     -0.044556      3.807307
   H     -0.291022      0.137570      2.787924
   H     -0.334332      0.781952      4.330373
