   10
 0004.xyz Energy 0.138345
   H      0.536194      0.866342     -0.102528
   N     -0.000003     -0.000005      0.000001
   H      0.600373     -0.727931      0.397688
   H     -0.796537      0.163240      0.622441
   H     -0.339989     -0.301584     -0.917609
   H     -0.578641      0.794406      3.947505
   N      0.000003     -0.000004      3.659998
   H      0.156279     -0.616533      4.462465
   H     -0.477925     -0.519632      2.918298
   H      0.900242      0.341820      3.311754
