   10
 0006.xyz Energy 0.133403
   H      0.080381      0.066557      1.018663
   N     -0.000000     -0.000000     -0.000006
   H     -0.978681      0.124826     -0.274022
   H      0.572123      0.728872     -0.435860
   H      0.326184     -0.920249     -0.308704
   H     -0.410925     -0.654171      3.207865
   N      0.000002      0.000004      3.880004
   H     -0.444738     -0.125256      4.793787
   H      1.004600     -0.180718      3.961680
   H     -0.148968      0.960096      3.556617
