   10
 0007.xyz Energy 0.140111
   H     -0.870846      0.537015      0.042503
   N      0.000005     -0.000003     -0.000000
   H     -0.181289     -0.967201      0.283095
   H      0.362686      0.013120     -0.957517
   H      0.689383      0.417107      0.631922
   H      0.088622     -0.680982      4.359588
   N     -0.000000      0.000004      3.599996
   H      0.823708     -0.055258      2.994246
   H     -0.840549     -0.206491      3.052834
   H     -0.071774      0.942680      3.993389
