   10
 0008.xyz Energy 0.143423
   H      0.163325      0.484440     -0.887247
   N     -0.000001     -0.000003      0.000005
   H      0.897094     -0.187470      0.456687
   H     -0.576641      0.587806      0.608705
   H     -0.483766     -0.884739     -0.178213
   H      0.466189      0.835125      3.114216
   N     -0.000003     -0.000005      3.480002
   H     -0.257496      0.154050      4.459005
   H     -0.843484     -0.188207      2.930759
   H      0.634826     -0.800906      3.415992
