   10
 0009.xyz Energy 0.138605
   H     -0.654246     -0.477487      0.626524
   N      0.000004      0.000003     -0.000003
   H     -0.523106      0.580874     -0.661386
   H      0.629356      0.591454      0.550132
   H      0.547946     -0.694877     -0.515222
   H     -0.369032     -0.728455      4.297846
   N      0.000002      0.000004      3.679997
   H      0.120974      0.867848      4.209803
   H      0.903931     -0.298301      3.302537
   H     -0.655900      0.158852      2.909861
