   10
 0010.xyz Energy 0.129043
   H     -0.652573     -0.107955     -0.781702
   N      0.000004      0.000001      0.000004
   H      0.318783     -0.922896      0.308425
   H      0.805197      0.555954     -0.301870
   H     -0.471456      0.474889      0.775088
   H      0.398381     -0.931792      3.872962
   N     -0.000002      0.000005      4.020001
   H     -0.960218     -0.089757      4.364110
   H      0.563283      0.507270      4.708434
   H     -0.001416      0.514209      3.134483
