   10
 0012.xyz Energy 0.147298
   H     -0.130394      0.259370     -0.981982
   N      0.000001     -0.000001      0.000005
   H      0.925242      0.306337      0.313960
   H     -0.720725      0.450976      0.570726
   H     -0.074133     -1.016663      0.097221
   H     -0.805773     -0.253919      2.821364
   N      0.000004      0.000001      3.400003
   H     -0.230962      0.822294      3.964780
   H      0.237202     -0.782126      4.016901
   H      0.799472      0.213732      2.796912
