   10
 0013.xyz Energy 0.128867
   H      0.341034      0.959995     -0.103295
   N     -0.000002     -0.000005      0.000001
   H     -1.005675      0.013875      0.192123
   H      0.175130     -0.519343     -0.864965
   H      0.489538     -0.454454      0.776129
   H     -0.419550      0.840750      4.447040
   N      0.000002     -0.000005      4.039998
   H      1.015737      0.030222      4.165904
   H     -0.377233     -0.829811      4.506541
   H     -0.218986     -0.041097      3.040546
