   10
 0016.xyz Energy 0.127625
   H     -0.396497     -0.289355     -0.898682
   N      0.000002      0.000002      0.000005
   H     -0.306763      0.952384      0.217594
   H     -0.319022     -0.637659      0.734961
   H      1.022251     -0.025392     -0.053942
   H      0.547056     -0.665401      4.633657
   N     -0.000003      0.000004      4.079997
   H     -0.971897     -0.005634      4.402291
   H      0.391181      0.939719      4.191616
   H      0.033701     -0.268735      3.092479
