   10
 0019.xyz Energy 0.14244
   H      0.216775     -0.977624      0.214065
   N     -0.000001      0.000005     -0.000001
   H     -0.039541      0.126400     -1.015355
   H     -0.905268      0.246576      0.410173
   H      0.728050      0.604574      0.391134
   H      0.517259     -0.452505      4.299109
   N     -0.000003      0.000002      3.539996
   H     -0.042511      1.008860      3.709947
   H      0.475408     -0.176552      2.650411
   H     -0.950117     -0.379837      3.500591
