   10
 0023.xyz Energy 0.139471
   H      0.159209      0.817834      0.595285
   N     -0.000001     -0.000004     -0.000003
   H      0.550153     -0.789389      0.350261
   H     -0.994389     -0.244016      0.014086
   H      0.285039      0.215633     -0.959587
   H     -0.522795      0.586922      2.943667
   N      0.000003     -0.000003      3.600004
   H     -0.043179      0.412824      4.536055
   H     -0.410854     -0.937710      3.621216
   H      0.976788     -0.061991      3.299012
