   10
 0026.xyz Energy 0.126622
   H     -0.238711     -0.993359     -0.069422
   N      0.000001      0.000005      0.000000
   H     -0.852415      0.545867      0.154611
   H      0.643400      0.142443      0.783772
   H      0.447708      0.304973     -0.868966
   H      0.039452     -0.970988      4.422784
   N     -0.000000      0.000005      4.099998
   H      0.541565      0.094778      3.236165
   H     -0.974044      0.261397      3.922623
   H      0.393030      0.614740      4.818452
