   12
 0000.xyz Energy -0.157518
   H     -0.597449      0.831182      0.027499
   N      0.000003     -0.000005     -0.000000
   H      0.277336     -0.189128     -0.967369
   H      0.835686      0.161372      0.569333
   H     -0.515618     -0.803362      0.370539
   C      0.912278     -1.126218      3.592697
   C     -0.071731      0.088999      3.723914
   O     -0.357899      0.719603      2.634297
   O     -0.489684      0.327019      4.924588
   H      1.213244     -1.279505      2.549142
   H      1.800927     -0.941600      4.214552
   H      0.423931     -2.032889      3.979490
