   12
 0002.xyz Energy -0.130987
   H      0.303013      0.484638      0.849632
   N     -0.000002     -0.000003     -0.000005
   H     -0.975182     -0.294319      0.104322
   H      0.081839      0.632355     -0.801238
   H      0.590353     -0.822638     -0.152652
   C     -1.411168     -0.232861      4.386842
   C      0.109593      0.024167      4.097934
   O      0.423765      1.199073      3.664676
   O      0.887667     -0.983285      4.327273
   H     -2.008336      0.665002      4.186048
   H     -1.763824     -1.064328      3.758526
   H     -1.535213     -0.539173      5.436094
