   12
 0004.xyz Energy -0.0959299
   H      0.386971     -0.322866     -0.891390
   N     -0.000002      0.000002      0.000005
   H     -0.427126     -0.789536      0.492629
   H      0.749856      0.395405      0.574389
   H     -0.709672      0.716972     -0.175696
   C      0.654203      1.118962      4.439119
   C     -0.045900     -0.090117      5.153419
   O      0.727379     -1.022767      5.599540
   O     -1.335821     -0.016932      5.214279
   H      1.744454      0.998806      4.437223
   H      0.284641      1.192456      3.405432
   H      0.380433      2.052606      4.952445
