   12
 0008.xyz Energy -0.101873
   H      0.996557     -0.232494      0.037209
   N     -0.000005      0.000001     -0.000000
   H     -0.547240     -0.859140     -0.104371
   H     -0.272181      0.475060      0.865325
   H     -0.177060      0.616556     -0.798161
   C     -1.181229      0.439391      4.093049
   C      0.093781     -0.028739      4.878828
   O      0.825053      0.900320      5.397393
   O      0.272631     -1.309149      4.917809
   H     -1.278541      1.531727      4.113494
   H     -1.113920      0.089725      3.052045
   H     -2.073537     -0.025269      4.538045
