   12
 0009.xyz Energy -0.13039
   H      0.588181     -0.411312     -0.730363
   N     -0.000003      0.000002      0.000004
   H      0.548094      0.110174      0.857870
   H     -0.337739      0.915884     -0.309258
   H     -0.798491     -0.614778      0.181695
   C      0.752760     -1.188160      3.967910
   C     -0.061569      0.093447      4.363628
   O     -0.732870      0.664333      3.420090
   O      0.033741      0.439879      5.606149
   H      0.614367     -1.431940      2.907483
   H      1.819650     -1.018093      4.176012
   H      0.427346     -2.033020      4.592780
