   12
 0012.xyz Energy -0.0967427
   H      0.999529      0.161813     -0.152719
   N     -0.000005     -0.000001      0.000001
   H     -0.318360     -0.763234     -0.603828
   H     -0.159325     -0.250865      0.979916
   H     -0.521768      0.852298     -0.223380
   C      0.367620      1.229499      4.774426
   C     -0.026946     -0.099766      5.509012
   O      0.077332     -1.189619      4.824785
   O     -0.419310      0.047408      6.732673
   H      0.704012      1.029355      3.749795
   H     -0.500347      1.905390      4.757380
   H      1.165237      1.734180      5.339446
