   12
 0017.xyz Energy -0.114918
   H      0.390412      0.162437      0.932608
   N     -0.000002     -0.000001     -0.000005
   H      0.143087      0.831943     -0.579554
   H      0.469103     -0.801416     -0.431541
   H     -1.002572     -0.192953      0.078557
   C     -0.170790     -1.444738      5.140334
   C      0.013093      0.113531      5.155444
   O      0.141844      0.690200      4.007535
   O      0.017091      0.652310      6.331309
   H     -0.180002     -1.831166      4.113848
   H      0.647889     -1.911672      5.707980
   H     -1.111609     -1.704755      5.647675
