   12
 0018.xyz Energy -0.115155
   H      0.840364     -0.585109      0.000617
   N     -0.000005      0.000003     -0.000000
   H      0.270435      0.985663     -0.061809
   H     -0.585440     -0.244371     -0.803800
   H     -0.525295     -0.156227      0.864992
   C     -0.915336     -1.090320      4.499691
   C      0.074120      0.085246      4.817912
   O      0.944327      0.369061      3.907413
   O     -0.093818      0.644038      5.972253
   H     -0.726569     -1.506106      3.502407
   H     -0.800051     -1.876845      5.260331
   H     -1.949955     -0.721951      4.563033
