   12
 0021.xyz Energy -0.156951
   H      0.722678     -0.722053     -0.070290
   N     -0.000004      0.000004      0.000000
   H     -0.881563     -0.427296      0.297913
   H      0.286805      0.704329      0.685722
   H     -0.127866      0.444966     -0.913350
   C      1.431871     -0.013281      4.137667
   C     -0.111508     -0.002158      3.854647
   O     -0.494241     -0.496214      2.724938
   O     -0.836412      0.509028      4.796008
   H      1.982082     -0.472952      3.307572
   H      1.779707      1.019321      4.290073
   H      1.626806     -0.565800      5.068724
