   12
 0029.xyz Energy -0.137632
   H     -0.565862     -0.341812     -0.782004
   N      0.000003      0.000002      0.000004
   H      0.436321      0.889771     -0.257718
   H     -0.598248      0.137930      0.819529
   H      0.727745     -0.685915      0.220134
   C     -1.286213      0.384248      5.201100
   C      0.102376     -0.033040      4.601155
   O      0.923274     -0.623757      5.403651
   O      0.271905      0.267129      3.354514
   H     -1.366976      0.086463      6.253663
   H     -1.407112      1.474073      5.110827
   H     -2.090918     -0.084604      4.615633
