   12
 0033.xyz Energy -0.106722
   H      0.506970      0.889648      0.008554
   N     -0.000003     -0.000005     -0.000000
   H      0.655766     -0.764776     -0.183239
   H     -0.449005     -0.145716      0.908688
   H     -0.713692      0.020911     -0.734002
   C     -1.179020     -0.847031      5.303705
   C      0.092901      0.065325      5.413545
   O      0.551364      0.274953      6.602111
   O      0.544111      0.512430      4.286841
   H     -1.496815     -1.201805      6.291747
   H     -1.993498     -0.277801      4.831382
   H     -0.956437     -1.704066      4.650948
