   12
 0034.xyz Energy -0.117446
   H      0.623183     -0.532104      0.614063
   N     -0.000003      0.000003     -0.000003
   H     -0.756466     -0.607327     -0.327717
   H     -0.396240      0.789842      0.517394
   H      0.529571      0.349549     -0.803693
   C      0.182020     -0.245904      6.682401
   C     -0.019790      0.021711      5.149463
   O     -1.178479      0.462183      4.788571
   O      1.009775     -0.234080      4.409515
   H     -0.722408      0.006085      7.249496
   H      0.435464     -1.305621      6.834884
   H      1.031720      0.350236      7.046780
