   12
 0035.xyz Energy -0.230037
   H     -0.906000      1.374000      0.240000
   N     -0.462000      0.466000      0.272000
   H     -0.370000     -0.058000     -0.589000
   H      0.477000      0.544000      0.741000
   H     -0.925000     -0.132000      1.003000
   C      1.044040     -1.176700      4.007920
   C      0.524040     -0.610700      2.726920
   O      1.295040      0.100300      2.011920
   O     -0.671960     -0.849700      2.380920
   H      1.795040     -1.942700      3.794920
   H      1.503040     -0.387700      4.609920
   H      0.238040     -1.631700      4.592920
