   16
 0001.xyz Energy 0.104273
   N     -2.275000      0.997000     -3.019000
   C     -1.005000      0.824000     -2.236000
   H     -2.605000      0.084000     -3.369000
   H     -2.113000      1.623000     -3.824000
   H     -3.009000      1.409000     -2.420000
   H     -0.245000      0.394000     -2.893000
   H     -1.167000      0.162000     -1.381000
   H     -0.674000      1.804000     -1.883000
   N      2.167847      0.497563     -0.423263
   C      2.896847      1.390563     -1.390263
   H      1.176847      0.395563     -0.700263
   H      2.197847      0.891563      0.531737
   H      2.595847     -0.442437     -0.400263
   H      2.407847      2.369563     -1.399263
   H      2.830847      0.950563     -2.389263
   H      3.950847      1.521563     -1.128263
