   16
 0004.xyz Energy 0.101978
   N     -2.275000      0.997000     -3.019000
   C     -1.005000      0.824000     -2.236000
   H     -2.605000      0.084000     -3.369000
   H     -2.113000      1.623000     -3.824000
   H     -3.009000      1.409000     -2.420000
   H     -0.245000      0.394000     -2.893000
   H     -1.167000      0.162000     -1.381000
   H     -0.674000      1.804000     -1.883000
   N      2.293974      0.510132     -0.386632
   C      3.022974      1.403132     -1.353632
   H      1.302974      0.408132     -0.663632
   H      2.323974      0.904132      0.568368
   H      2.721974     -0.429868     -0.363632
   H      2.533974      2.382132     -1.362632
   H      2.956974      0.963132     -2.352632
   H      4.076974      1.534132     -1.091632
