   16
 0007.xyz Energy 0.108668
   N     -2.275000      0.997000     -3.019000
   C     -1.005000      0.824000     -2.236000
   H     -2.605000      0.084000     -3.369000
   H     -2.113000      1.623000     -3.824000
   H     -3.009000      1.409000     -2.420000
   H     -0.245000      0.394000     -2.893000
   H     -1.167000      0.162000     -1.381000
   H     -0.674000      1.804000     -1.883000
   N      1.947126      0.475568     -0.487368
   C      2.676126      1.368568     -1.454368
   H      0.956126      0.373568     -0.764368
   H      1.977126      0.869568      0.467632
   H      2.375126     -0.464432     -0.464368
   H      2.187126      2.347568     -1.463368
   H      2.610126      0.928568     -2.453368
   H      3.730126      1.499568     -1.192368
