   16
 0008.xyz Energy 0.113976
   N     -2.275000      0.997000     -3.019000
   C     -1.005000      0.824000     -2.236000
   H     -2.605000      0.084000     -3.369000
   H     -2.113000      1.623000     -3.824000
   H     -3.009000      1.409000     -2.420000
   H     -0.245000      0.394000     -2.893000
   H     -1.167000      0.162000     -1.381000
   H     -0.674000      1.804000     -1.883000
   N      1.726405      0.453574     -0.551474
   C      2.455405      1.346574     -1.518474
   H      0.735405      0.351574     -0.828474
   H      1.756405      0.847574      0.403526
   H      2.154405     -0.486426     -0.528474
   H      1.966405      2.325574     -1.527474
   H      2.389405      0.906574     -2.517474
   H      3.509405      1.477574     -1.256474
