   16
 0010.xyz Energy 0.146858
   N     -2.275000      0.997000     -3.019000
   C     -1.005000      0.824000     -2.236000
   H     -2.605000      0.084000     -3.369000
   H     -2.113000      1.623000     -3.824000
   H     -3.009000      1.409000     -2.420000
   H     -0.245000      0.394000     -2.893000
   H     -1.167000      0.162000     -1.381000
   H     -0.674000      1.804000     -1.883000
   N      1.127305      0.393874     -0.725474
   C      1.856305      1.286874     -1.692474
   H      0.136305      0.291874     -1.002474
   H      1.157305      0.787874      0.229526
   H      1.555305     -0.546126     -0.702474
   H      1.367305      2.265874     -1.701474
   H      1.790305      0.846874     -2.691474
   H      2.910305      1.417874     -1.430474
