   16
 0014.xyz Energy 3.40788
   N     -2.275000      0.997000     -3.019000
   C     -1.005000      0.824000     -2.236000
   H     -2.605000      0.084000     -3.369000
   H     -2.113000      1.623000     -3.824000
   H     -3.009000      1.409000     -2.420000
   H     -0.245000      0.394000     -2.893000
   H     -1.167000      0.162000     -1.381000
   H     -0.674000      1.804000     -1.883000
   N     -0.701526      0.211632     -1.256632
   C      0.027474      1.104632     -2.223632
   H     -1.692526      0.109632     -1.533632
   H     -0.671526      0.605632     -0.301632
   H     -0.273526     -0.728368     -1.233632
   H     -0.461526      2.083632     -2.232632
   H     -0.038526      0.664632     -3.222632
   H      1.081474      1.235632     -1.961632
