   16
 0017.xyz Energy 11.3603
   N     -2.275000      0.997000     -3.019000
   C     -1.005000      0.824000     -2.236000
   H     -2.605000      0.084000     -3.369000
   H     -2.113000      1.623000     -3.824000
   H     -3.009000      1.409000     -2.420000
   H     -0.245000      0.394000     -2.893000
   H     -1.167000      0.162000     -1.381000
   H     -0.674000      1.804000     -1.883000
   N     -2.624953      0.019963     -1.815263
   C     -1.895953      0.912963     -2.782263
   H     -3.615953     -0.082037     -2.092263
   H     -2.594953      0.413963     -0.860263
   H     -2.196953     -0.920037     -1.792263
   H     -2.384953      1.891963     -2.791263
   H     -1.961953      0.472963     -3.781263
   H     -0.841953      1.043963     -2.520263
