   16
 0024.xyz Energy 0.110536
   N      0.440814      0.225292      0.477809
   C     -0.504593     -0.257902     -0.546941
   H      1.175914     -0.468791      0.666530
   H     -0.037603      0.419011      1.367455
   H      0.904361      1.093896      0.180203
   H     -0.961017     -1.176507     -0.173540
   H      0.061087     -0.444313     -1.461828
   H     -1.255695      0.519151     -0.701237
   N      0.396798     -0.424118      4.891151
   C     -0.454212      0.485475      5.682228
   H      0.263540     -1.403611      5.175007
   H      1.393973     -0.200938      5.008249
   H      0.181308     -0.360721      3.887426
   H     -0.178449      0.371929      6.732299
   H     -1.494334      0.198514      5.516213
   H     -0.267662      1.503572      5.335166
