   16
 0030.xyz Energy 0.128519
   N     -0.355272      0.545148      0.223541
   C      0.406684     -0.624025     -0.255874
   H      0.178245      1.079493      0.921805
   H     -1.241139      0.260945      0.662117
   H     -0.583545      1.185753     -0.548104
   H      0.616780     -1.261523      0.604964
   H      1.330412     -0.258068     -0.708161
   H     -0.209845     -1.146237     -0.990014
   N      0.170330      0.466372      3.863702
   C     -0.194976     -0.533842      4.885223
   H      0.523222      1.330793      4.294956
   H     -0.638434      0.719220      3.280735
   H      0.904483      0.111081      3.237039
   H     -0.973579     -0.099107      5.514802
   H      0.700594     -0.758953      5.467496
   H     -0.559899     -1.422608      4.366861
