   16
 0033.xyz Energy 0.0941933
   N     -0.084378     -0.155195     -0.664958
   C      0.096580      0.177639      0.761175
   H     -0.886342     -0.783839     -0.804236
   H      0.746705     -0.624150     -1.048707
   H     -0.251266      0.688883     -1.228518
   H      0.268798     -0.754573      1.302385
   H     -0.814132      0.670108      1.107353
   H      0.957933      0.843456      0.842002
   N      0.409648      0.103786      4.937053
   C     -0.468929     -0.118809      6.101499
   H     -0.108570      0.011407      4.053507
   H      1.182049     -0.575037      4.915190
   H      0.824942      1.044591      4.955356
   H     -0.876203     -1.128640      6.024316
   H     -1.263793      0.628735      6.067883
   H      0.136753     -0.007558      7.002913
