   16
 0034.xyz Energy 0.0930938
   N     -0.031007      0.277014     -0.629028
   C      0.035495     -0.317083      0.720048
   H      0.399441      1.210854     -0.648907
   H     -1.004099      0.378005     -0.946475
   H      0.460908     -0.305276     -1.319592
   H     -0.501557      0.343934      1.402850
   H      1.088114     -0.397412      0.998077
   H     -0.434882     -1.301207      0.675100
   N      0.008534      0.102022      5.460363
   C     -0.009780     -0.116777      4.001194
   H     -0.932111      0.311177      5.819778
   H      0.618841      0.890275      5.713468
   H      0.352945     -0.728696      5.959569
   H     -0.382510      0.795349      3.531423
   H     -0.671119     -0.961328      3.798402
   H      1.011906     -0.332991      3.683103
