   16
 0038.xyz Energy 0.103324
   N      0.194792     -0.026442     -0.659342
   C     -0.222976      0.030254      0.754743
   H     -0.015193     -0.943124     -1.075680
   H      1.205930      0.133959     -0.758093
   H     -0.288021      0.686757     -1.221622
   H      0.321495     -0.746321      1.295177
   H     -1.299582     -0.146588      0.792266
   H      0.025472      1.022252      1.136826
   N      0.131955      0.632839      4.404464
   C     -0.151060     -0.724406      4.909608
   H     -0.721383      1.088018      4.054659
   H      0.810180      0.611164      3.631534
   H      0.522814      1.233391      5.142357
   H     -0.561147     -1.309170      4.084099
   H     -0.873061     -0.634054      5.723433
   H      0.788932     -1.151439      5.264337
