   16
 0040.xyz Energy 0.101184
   N      0.020096      0.007358      0.687690
   C     -0.022998     -0.008411     -0.787192
   H      0.116323      0.965230      1.049571
   H      0.814257     -0.539755      1.045259
   H     -0.837463     -0.391510      1.091938
   H      0.909600      0.425085     -1.153156
   H     -0.882612      0.586034     -1.102564
   H     -0.125326     -1.047114     -1.107189
   N      0.070404     -0.073798      5.840421
   C     -0.080592      0.084462      4.381128
   H      0.318358     -1.040510      6.088864
   H     -0.801000      0.158942      6.334757
   H      0.808861      0.539713      6.209478
   H     -0.874421     -0.588950      4.052586
   H      0.872395     -0.175876      3.916584
   H     -0.342201      1.125742      4.183463
