   16
 0042.xyz Energy 0.10617
   N      0.684753      0.064970      0.016336
   C     -0.783830     -0.074384     -0.018696
   H      1.149790     -0.849515     -0.055743
   H      0.998771      0.503640      0.892031
   H      1.024585      0.647077     -0.760571
   H     -1.080217     -0.699058      0.826007
   H     -1.052254     -0.543520     -0.967179
   H     -1.216081      0.924889      0.061224
   N      0.036137     -0.043945      5.005666
   C     -0.041360      0.050315      3.535125
   H      0.116272      0.886204      5.437105
   H      0.852299     -0.594504      5.303396
   H     -0.801117     -0.495471      5.396880
   H      0.870903      0.535526      3.183084
   H     -0.923154      0.643082      3.284471
   H     -0.124529     -0.963728      3.139431
