   16
 0043.xyz Energy 0.1192
   N     -0.493669     -0.436657      0.197475
   C      0.565089      0.499847     -0.226050
   H     -1.399835     -0.193084     -0.223563
   H     -0.614778     -0.428307      1.218818
   H     -0.272973     -1.402150     -0.080079
   H      0.273513      1.501270      0.096006
   H      0.644368      0.444673     -1.313447
   H      1.496266      0.189332      0.251720
   N      0.133757      0.646043      4.184778
   C     -0.153122     -0.739516      4.603476
   H     -0.293743      1.327347      4.825720
   H     -0.231869      0.836064      3.242393
   H      1.145513      0.830322      4.167120
   H     -1.236743     -0.871229      4.601957
   H      0.257742     -0.877479      5.605433
   H      0.324969     -1.410553      3.887298
