   16
 0047.xyz Energy 0.0869205
   N     -0.108237      0.210602     -0.645992
   C      0.123885     -0.241076      0.739463
   H     -1.069576      0.553567     -0.772251
   H      0.038616     -0.553375     -1.318788
   H      0.529508      0.975707     -0.902534
   H     -0.579463     -1.049006      0.949551
   H     -0.046895      0.610149      1.401287
   H      1.155693     -0.590966      0.808178
   N     -0.552039     -0.354148      5.587864
   C      0.631906      0.405399      5.142054
   H     -1.376133     -0.135132      5.012853
   H     -0.790029     -0.137794      6.564814
   H     -0.391926     -1.368256      5.525675
   H      0.399888      1.468294      5.231542
   H      0.831847      0.133235      4.103926
   H      1.467847      0.130254      5.788019
