   16
 0049.xyz Energy 0.130782
   N     -0.278252      0.629013     -0.017132
   C      0.318514     -0.720024      0.019624
   H      0.014494      1.190504      0.793279
   H     -1.305785      0.584620     -0.007894
   H      0.001802      1.139704     -0.864884
   H     -0.014784     -1.207698      0.937596
   H      1.404096     -0.605426      0.007791
   H     -0.028575     -1.262832     -0.861661
   N     -0.008669     -0.052986      3.514076
   C      0.009928      0.060639      4.985172
   H     -0.054602     -1.035831      3.214671
   H      0.835891      0.358794      3.095704
   H     -0.821454      0.431631      3.111028
   H      0.890914     -0.470717      5.350016
   H     -0.907412     -0.391776      5.366706
   H      0.058830      1.121622      5.237557
