   16
 0051.xyz Energy 0.108441
   N      0.140613      0.207988      0.640581
   C     -0.160952     -0.238072     -0.733272
   H      0.408322      1.200768      0.661990
   H      0.916585     -0.330595      1.047614
   H     -0.673324      0.093527      1.258904
   H      0.737041     -0.091964     -1.336470
   H     -0.988102      0.368306     -1.107291
   H     -0.436627     -1.293437     -0.688766
   N      0.619159      0.242148      5.177149
   C     -0.708745     -0.277178      4.797208
   H      0.830257      1.123240      4.690473
   H      1.364307     -0.426987      4.942859
   H      0.674648      0.425763      6.187656
   H     -0.703526     -0.450874      3.719531
   H     -1.451912      0.474468      5.070142
   H     -0.872370     -1.207719      5.344102
