   16
 0052.xyz Energy 0.11856
   N      0.038841     -0.682566      0.077268
   C     -0.044448      0.781327     -0.088454
   H      1.016221     -1.000858      0.111260
   H     -0.419910     -1.174491     -0.700830
   H     -0.416454     -0.987681      0.947631
   H      0.453598      1.040267     -1.024662
   H      0.457441      1.243028      0.764014
   H     -1.100995      1.054566     -0.117143
   N      0.173031     -0.210199      4.108136
   C     -0.198064      0.240626      5.463285
   H      0.821205      0.449424      3.658131
   H     -0.653452     -0.294236      3.501718
   H      0.633997     -1.129359      4.132096
   H     -0.679985      1.215682      5.370536
   H      0.717020      0.309615      6.054575
   H     -0.883145     -0.497439      5.884828
