   16
 0053.xyz Energy 0.0983042
   N     -0.333084     -0.385417     -0.462476
   C      0.381290      0.441180      0.529386
   H      0.291418     -1.082520     -0.888834
   H     -0.718523      0.190606     -1.222420
   H     -1.116522     -0.894045     -0.031847
   H      1.196098      0.952371      0.013288
   H      0.764351     -0.224559      1.305154
   H     -0.331648      1.156904      0.943188
   N      0.412576     -0.540474      4.865090
   C     -0.472282      0.618670      4.639713
   H     -0.118370     -1.360158      5.187503
   H      1.126083     -0.334494      5.576680
   H      0.904279     -0.809839      4.002773
   H     -0.962151      0.853874      5.586440
   H     -1.202931      0.338086      3.878671
   H      0.147525      1.451034      4.300916
