   16
 0055.xyz Energy 0.112024
   N     -2.275000      0.997000     -3.019000
   C     -1.005000      0.824000     -2.236000
   H     -2.605000      0.084000     -3.369000
   H     -2.113000      1.623000     -3.824000
   H     -3.009000      1.409000     -2.420000
   H     -0.245000      0.394000     -2.893000
   H     -1.167000      0.162000     -1.381000
   H     -0.674000      1.804000     -1.883000
   N      1.801300      0.461100     -0.529800
   C      2.530300      1.354100     -1.496800
   H      0.810300      0.359100     -0.806800
   H      1.831300      0.855100      0.425200
   H      2.229300     -0.478900     -0.506800
   H      2.041300      2.333100     -1.505800
   H      2.464300      0.914100     -2.495800
   H      3.584300      1.485100     -1.234800
