    2
 0000.xyz Energy 0.00691143
  Cl     16.022000     10.521000     24.437000
  Cl    -40.773000     -8.185000    -23.381000
