    2
 0001.xyz Energy 0.114292
  Cl     -0.402000      0.026000      0.000000
  Cl     -4.740400      0.176700      0.000000
