    2
 0002.xyz Energy 0.108382
  Cl     -0.402000      0.026000      0.000000
  Cl     -5.030163      0.186765      0.000000
