    2
 0003.xyz Energy 0.104862
  Cl     -0.402000      0.026000      0.000000
  Cl     -5.215290      0.193196      0.000000
