    2
 0004.xyz Energy 0.103389
  Cl     -0.402000      0.026000      0.000000
  Cl     -5.295780      0.195992      0.000000
