    2
 0006.xyz Energy 0.0996757
  Cl     -0.402000      0.026000      0.000000
  Cl     -5.507289      0.203339      0.000000
