    2
 0007.xyz Energy 0.103828
  Cl     -0.402000      0.026000      0.000000
  Cl     -5.271633      0.195153      0.000000
