    2
 0008.xyz Energy 0.106217
  Cl     -0.402000      0.026000      0.000000
  Cl     -5.142849      0.190680      0.000000
