    2
 0010.xyz Energy 0.00118779
  Cl    222.755000      0.000000      0.000000
  Cl   -222.755000     -0.000000      0.000000
