    2
 0014.xyz Energy 0.201825
  Cl     -0.402000      0.026000      0.000000
  Cl     -2.929380      0.113792      0.000000
