    2
 0016.xyz Energy 5.21665
  Cl     -0.402000      0.026000      0.000000
  Cl     -1.311535      0.057594      0.000000
