    2
 0019.xyz Energy 0.241158
  Cl     -0.402000      0.026000      0.000000
  Cl      1.900008     -0.053963      0.000000
