    2
 0020.xyz Energy 0.133226
  Cl     -0.402000      0.026000      0.000000
  Cl      3.179796     -0.098418      0.000000
