    2
 0022.xyz Energy 0.0805126
  Cl     -0.402000      0.026000      0.000000
  Cl      6.053282     -0.198233      0.000000
