    2
 0023.xyz Energy 0.0870264
  Cl     -0.402000      0.026000      0.000000
  Cl      5.535911     -0.180261      0.000000
