    2
 0028.xyz Energy 0.0388024
  Cl     -0.402000      0.026000      0.000000
  Cl     13.204800     -0.446650      0.000000
