    2
 0030.xyz Energy 0.030657
  Cl     -0.402000      0.026000      0.000000
  Cl     16.834741     -0.572741      0.000000
