    2
 0032.xyz Energy 0.0249493
  Cl     -0.402000      0.026000      0.000000
  Cl     20.786044     -0.709994      0.000000
