    2
 0033.xyz Energy 0.0227057
  Cl     -0.402000      0.026000      0.000000
  Cl     22.882207     -0.782807      0.000000
