    2
 0034.xyz Energy 0.0207663
  Cl     -0.402000      0.026000      0.000000
  Cl     25.058711     -0.858411      0.000000
