    2
 0035.xyz Energy 0.0190765
  Cl     -0.402000      0.026000      0.000000
  Cl     27.315556     -0.936806      0.000000
