    2
 0037.xyz Energy 0.0162845
  Cl     -0.402000      0.026000      0.000000
  Cl     32.070267     -1.101967      0.000000
