    2
 0038.xyz Energy 0.0151217
  Cl     -0.402000      0.026000      0.000000
  Cl     34.568133     -1.188733      0.000000
