    2
 0039.xyz Energy 0.0140836
  Cl     -0.402000      0.026000      0.000000
  Cl     37.146341     -1.278291      0.000000
