    2
 0041.xyz Energy 0.0123139
  Cl     -0.402000      0.026000      0.000000
  Cl     42.543778     -1.465778      0.000000
