    2
 0042.xyz Energy 0.0115554
  Cl     -0.402000      0.026000      0.000000
  Cl     45.363007     -1.563707      0.000000
