    2
 0044.xyz Energy 0.01024
  Cl     -0.402000      0.026000      0.000000
  Cl     51.242489     -1.767939      0.000000
