    2
 0047.xyz Energy 0.00866023
  Cl     -0.402000      0.026000      0.000000
  Cl     60.664267     -2.095217      0.000000
