    2
 0050.xyz Energy 0.00742653
  Cl     -0.402000      0.026000      0.000000
  Cl     70.809111     -2.447611      0.000000
