    2
 0053.xyz Energy 0.00644322
  Cl     -0.402000      0.026000      0.000000
  Cl     81.677022     -2.825122      0.000000
