    2
 0054.xyz Energy 0.00615932
  Cl     -0.402000      0.026000      0.000000
  Cl     85.460341     -2.956541      0.000000
