    2
 0056.xyz Energy 0.00564593
  Cl     -0.402000      0.026000      0.000000
  Cl     93.268000     -3.227750      0.000000
