    2
 0059.xyz Energy 0.0456618
  Cl     -0.402000      0.026000      0.000000
  Cl     11.148286     -0.375214      0.000000
