    2
 0061.xyz Energy 0.0341471
  Cl     -0.402000      0.026000      0.000000
  Cl     15.068139     -0.511376      0.000000
