    2
 0062.xyz Energy 0.0300479
  Cl     -0.402000      0.026000      0.000000
  Cl     17.185020     -0.584908      0.000000
