    2
 0063.xyz Energy 0.0266842
  Cl     -0.402000      0.026000      0.000000
  Cl     19.406539     -0.662076      0.000000
