    2
 0064.xyz Energy 0.0238835
  Cl     -0.402000      0.026000      0.000000
  Cl     21.732694     -0.742878      0.000000
