    2
 0065.xyz Energy 0.0215225
  Cl     -0.402000      0.026000      0.000000
  Cl     24.163486     -0.827314      0.000000
