    2
 0066.xyz Energy 0.0195103
  Cl     -0.402000      0.026000      0.000000
  Cl     26.698914     -0.915386      0.000000
