    2
 0068.xyz Energy 0.0162777
  Cl     -0.402000      0.026000      0.000000
  Cl     32.083682     -1.102433      0.000000
