    2
 0072.xyz Energy 0.011881
  Cl     -0.402000      0.026000      0.000000
  Cl     44.108857     -1.520143      0.000000
