    2
 0073.xyz Energy 0.0110685
  Cl     -0.402000      0.026000      0.000000
  Cl     47.376743     -1.633657      0.000000
