    2
 0074.xyz Energy 0.0103388
  Cl     -0.402000      0.026000      0.000000
  Cl     50.749265     -1.750806      0.000000
