    2
 0075.xyz Energy 0.00968075
  Cl     -0.402000      0.026000      0.000000
  Cl     54.226424     -1.871590      0.000000
