    2
 0076.xyz Energy 0.00908511
  Cl     -0.402000      0.026000      0.000000
  Cl     57.808220     -1.996008      0.000000
