    2
 0078.xyz Energy 0.00805096
  Cl     -0.402000      0.026000      0.000000
  Cl     65.285722     -2.255749      0.000000
