    2
 0079.xyz Energy 0.00760024
  Cl     -0.402000      0.026000      0.000000
  Cl     69.181429     -2.391071      0.000000
