    2
 0080.xyz Energy 0.00718707
  Cl     -0.402000      0.026000      0.000000
  Cl     73.181771     -2.530029      0.000000
