    2
 0081.xyz Energy 0.00680732
  Cl     -0.402000      0.026000      0.000000
  Cl     77.286751     -2.672620      0.000000
