    2
 0086.xyz Energy 0.00530004
  Cl     -0.402000      0.026000      0.000000
  Cl     99.381200     -3.440100      0.000000
