    5
 0000.xyz Energy 0.150855
   O      1.062807      0.189592      0.424157
   O     -0.951814     -0.524373     -0.405594
   C     -0.108616      0.327591     -0.018167
   H     -0.467582      1.410571     -0.078183
   F      0.000000      0.000000      2.900000
