    5
 0001.xyz Energy 0.115804
   O     -0.565992      1.003758     -0.132424
   O      0.726485     -0.889817     -0.160838
   C     -0.157043     -0.111500      0.286964
   H     -0.676255     -0.480006      1.235609
   F      0.000000      0.000000      3.740000
