    5
 0002.xyz Energy 0.131491
   O     -0.928045      0.160867     -0.676955
   O      0.732469      0.032186      0.898820
   C      0.191380     -0.188908     -0.217095
   H      0.823967     -0.813391     -0.934842
   F      0.000000      0.000000      4.020000
