    5
 0003.xyz Energy 0.123948
   O     -0.483948     -0.818801     -0.663907
   O      0.164640      0.964209      0.623393
   C      0.312453     -0.142281      0.039648
   H      1.345330     -0.612715      0.170657
   F      0.000000      0.000000      3.920000
