    5
 0004.xyz Energy 0.102693
   O     -0.966209     -0.014187     -0.641601
   O      1.113512      0.043364      0.321924
   C     -0.144133     -0.028549      0.312815
   H     -0.620706     -0.122930      1.346874
   F      0.000000      0.000000      4.580000
