    5
 0005.xyz Energy 0.111923
   O     -0.910010     -0.719202      0.006602
   O      0.654312      0.955477     -0.066062
   C      0.250212     -0.231196      0.058183
   H      1.077288     -0.995562      0.250527
   F      0.000000      0.000000      4.220000
