    5
 0006.xyz Energy 0.102763
   O     -0.320536     -0.372344      1.050729
   O      0.074978      0.138362     -1.149199
   C      0.240286      0.228959      0.096350
   H      1.034604      0.985828      0.414964
   F      0.000000      0.000000      5.220000
