    5
 0007.xyz Energy 0.122306
   O     -0.908038      0.610108      0.385551
   O      0.794557     -0.481636     -0.694355
   C      0.111048     -0.125716      0.302170
   H      0.478071     -0.541258      1.301132
   F      0.000000      0.000000      3.600000
