    5
 0008.xyz Energy 0.109272
   O     -0.735119      0.771993     -0.457210
   O      0.809382     -0.822766      0.115670
   C     -0.072664      0.049679      0.334208
   H     -0.312951      0.213981      1.439004
   F      0.000000      0.000000      4.040000
