    5
 0009.xyz Energy 0.144201
   O      0.725397      0.779476      0.460032
   O     -0.821423     -0.809891     -0.121510
   C      0.093959      0.029758     -0.331254
   H      0.404639      0.128205     -1.426285
   F      0.000000      0.000000      3.480000
