    5
 0010.xyz Energy 0.0999258
   O      1.100974     -0.330611     -0.154808
   O     -1.103167      0.299398     -0.196993
   C      0.002140      0.030545      0.344246
   H      0.009316      0.131489      1.482255
   F      0.000000      0.000000      4.560000
