    5
 0011.xyz Energy 0.11565
   O      0.507921      0.051304      1.041536
   O     -0.701032     -0.295967     -0.875432
   C      0.188961      0.239409     -0.162543
   H      0.813684      1.030861     -0.699787
   F      0.000000      0.000000      4.700000
