    5
 0012.xyz Energy 0.114998
   O      0.859409     -0.346795      0.697541
   O     -0.589802      0.381518     -0.923039
   C     -0.263821     -0.033975      0.220651
   H     -1.135893     -0.146324      0.950155
   F      0.000000      0.000000      4.280000
