    5
 0013.xyz Energy 0.103459
   O      0.279271     -0.460541     -1.027289
   O      0.015235      0.290596      1.122829
   C     -0.288182      0.166298     -0.093482
   H     -1.240842      0.716009     -0.402616
   F      0.000000      0.000000      5.300000
