    5
 0014.xyz Energy 0.154693
   O      0.330361      1.044155      0.382120
   O     -0.644140     -0.925634     -0.271495
   C      0.307039     -0.115982     -0.108252
   H      1.322091     -0.499301     -0.466081
   F      0.000000      0.000000      2.860000
