    5
 0015.xyz Energy 0.138692
   O      0.072022     -0.893951      0.735580
   O     -0.415247      0.858602     -0.660149
   C      0.335853      0.034595     -0.073816
   H      1.446138      0.148876     -0.317770
   F      0.000000      0.000000      3.540000
