    5
 0016.xyz Energy 0.125695
   O      0.186341      0.218713      1.123768
   O     -0.062009      0.110576     -1.152975
   C     -0.121662     -0.322219      0.028573
   H     -0.523841     -1.387402      0.123136
   F      0.000000      0.000000      4.320000
