    5
 0017.xyz Energy 0.119017
   O     -0.027233      0.193300     -1.143375
   O     -0.040204      0.153346      1.149040
   C      0.065989     -0.339202     -0.005536
   H      0.284137     -1.460531     -0.023945
   F      0.000000      0.000000      4.600000
