    5
 0018.xyz Energy 0.113358
   O     -0.172519     -0.093824     -1.143174
   O      0.490848     -0.027974      1.050576
   C     -0.311492      0.119182      0.090617
   H     -1.341251      0.513171      0.390074
   F      0.000000      0.000000      4.720000
