    5
 0019.xyz Energy 0.107598
   O      0.281597     -0.049863     -1.124113
   O     -0.064672     -0.228633      1.135327
   C     -0.212268      0.272516     -0.010967
   H     -0.913967      1.173406     -0.047327
   F      0.000000      0.000000      5.080000
