    5
 0020.xyz Energy 0.108849
   O     -0.624523     -0.814124     -0.540914
   O      0.682318      0.545635      0.762987
   C     -0.056550      0.262727     -0.217300
   H     -0.243555      1.131185     -0.935712
   F      0.000000      0.000000      4.860000
