    5
 0021.xyz Energy 0.155381
   O     -0.936681      0.503869      0.462773
   O      0.797351     -0.786166     -0.302653
   C      0.136343      0.276231     -0.156683
   H      0.586986      1.189456     -0.674610
   F      0.000000      0.000000      2.940000
