    5
 0022.xyz Energy 0.146131
   O     -0.915114      0.136144      0.699603
   O      1.087186     -0.077745     -0.396744
   C     -0.168371     -0.057145     -0.296359
   H     -0.725065     -0.246046     -1.276009
   F      0.000000      0.000000      3.500000
