    5
 0023.xyz Energy 0.130036
   O      0.682295      0.571462     -0.743853
   O     -0.723853     -0.245190      0.872549
   C      0.040661     -0.319268     -0.125928
   H      0.175144     -1.374663     -0.542295
   F      0.000000      0.000000      3.980000
