    5
 0024.xyz Energy 0.120464
   O     -0.542516      0.215057     -1.002417
   O      0.224318     -0.344394      1.084665
   C      0.311367      0.126558     -0.080476
   H      1.340648      0.544960     -0.346609
   F      0.000000      0.000000      4.500000
