    5
 0025.xyz Energy 0.112916
   O     -0.083908      0.118702     -1.150775
   O     -0.062336      0.202620      1.140387
   C      0.143104     -0.314421      0.010171
   H      0.616175     -1.353838      0.043687
   F      0.000000      0.000000      4.840000
