    5
 0026.xyz Energy 0.117179
   O      0.354737      1.052002     -0.335959
   O     -0.574442     -0.856253      0.531292
   C      0.214984     -0.191550     -0.191136
   H      0.925722     -0.824688     -0.823035
   F      0.000000      0.000000      4.340000
