    5
 0027.xyz Energy 0.103244
   O      0.115600     -0.440666     -1.066707
   O     -0.454102      0.452608      0.966624
   C      0.331231     -0.011683      0.097940
   H      1.426241     -0.050346      0.421614
   F      0.000000      0.000000      5.120000
