    5
 0028.xyz Energy 0.158012
   O     -0.935939     -0.190360      0.658175
   O      1.072407      0.277270     -0.344223
   C     -0.133531     -0.085042     -0.307214
   H     -0.575053     -0.366195     -1.322752
   F      0.000000      0.000000      3.180000
