    5
 0029.xyz Energy 0.117189
   O     -1.015033      0.403414      0.390357
   O      0.858490     -0.342134     -0.700972
   C      0.153187     -0.059965      0.303942
   H      0.659503     -0.258164      1.308764
   F      0.000000      0.000000      3.840000
