    5
 0030.xyz Energy 0.12719
   O      0.584041      0.510275      0.862513
   O     -0.293515     -0.418560     -1.041192
   C     -0.284290     -0.089748      0.174836
   H     -1.224051     -0.386395      0.752897
   F      0.000000      0.000000      3.960000
