    5
 0031.xyz Energy 0.118931
   O     -0.175491     -0.006444      1.146549
   O     -0.177445     -0.006938     -1.146250
   C      0.345357      0.013095     -0.000299
   H      1.487036      0.056384     -0.001182
   F      0.000000      0.000000      4.600000
