    5
 0032.xyz Energy 0.120914
   O     -0.608370      0.815870      0.556468
   O      0.343374     -1.017427     -0.438590
   C      0.259307      0.197223     -0.115350
   H      1.116480      0.849289     -0.496625
   F      0.000000      0.000000      4.120000
