    5
 0033.xyz Energy 0.109026
   O     -0.554241     -0.934086     -0.407080
   O      0.802771      0.816460      0.185404
   C     -0.243189      0.115104      0.216917
   H     -1.047185      0.495533      0.933974
   F      0.000000      0.000000      4.260000
