    5
 0034.xyz Energy 0.108489
   O     -0.138077      1.004178     -0.563893
   O     -0.050340     -0.831206      0.807456
   C      0.184371     -0.169262     -0.238329
   H      0.793860     -0.728722     -1.026259
   F      0.000000      0.000000      4.920000
