    7
 0000.xyz Energy -0.00305689
   O      0.616052      0.531037     -0.826978
   O     -0.875481     -0.341939      0.679731
   C      0.253853     -0.185040      0.144089
   H      1.093110     -0.796703      0.620348
   O      0.053880      0.036940      3.344316
   H     -0.028268     -0.833349      2.943105
   H     -0.827023      0.246963      3.668387
