    7
 0001.xyz Energy -0.0127593
   O      0.889892      0.329602      0.666985
   O     -1.016723     -0.431997     -0.353661
   C      0.124103      0.100194     -0.306598
   H      0.534449      0.431452     -1.320102
   O     -0.042483      0.044690      4.042006
   H      0.592952     -0.461807      4.556599
   H      0.081416     -0.247604      3.134077
