    7
 0003.xyz Energy 0.00234374
   O      0.200809     -0.052289     -1.141208
   O      0.084123     -0.156352      1.146255
   C     -0.278814      0.204160     -0.004933
   H     -1.200512      0.879075     -0.021346
   O     -0.019934      0.062254      4.576357
   H     -0.560893     -0.730204      4.509312
   H      0.877327     -0.258021      4.708523
