    7
 0011.xyz Energy -0.0197968
   O      1.103265      0.136686      0.330965
   O     -1.139304     -0.217461      0.010970
   C      0.035259      0.079040     -0.334593
   H      0.151924      0.340346     -1.440674
   O     -0.003880      0.016055      3.543352
   H      0.755605      0.111661      2.960974
   H     -0.694019     -0.366519      2.993383
