    7
 0017.xyz Energy -0.00485858
   O      0.012599     -0.494473     -1.049167
   O      0.116665      0.178628      1.140134
   C     -0.126488      0.309065     -0.089007
   H     -0.544637      1.330740     -0.383350
   O     -0.022732     -0.053813      4.209557
   H      0.893573      0.163455      4.013851
   H     -0.532720      0.690777      3.876961
