    7
 0023.xyz Energy 0.00301942
   O     -0.789482      0.207119      0.824156
   O      0.535803     -0.425643     -0.936572
   C      0.248235      0.213830      0.109997
   H      1.068787      0.920736      0.473705
   O     -0.061666      0.021345      4.165287
   H      0.718036      0.535967      3.936485
   H      0.260849     -0.874796      4.299592
