    7
 0024.xyz Energy -0.00530312
   O      0.383459     -0.354773     -1.035620
   O     -0.315194      0.670391      0.892553
   C     -0.066801     -0.308838      0.140000
   H     -0.287599     -1.329839      0.602720
   O      0.061196      0.022635      4.845378
   H     -0.566525     -0.141297      5.555458
   H     -0.404902     -0.218017      4.039176
