    7
 0027.xyz Energy -0.00140906
   O     -1.116405     -0.168353      0.265917
   O      0.988377      0.130431     -0.592894
   C      0.125285      0.037108      0.319953
   H      0.539351      0.159764      1.377691
   O      0.057869      0.028393      4.191459
   H     -0.805742      0.450874      4.163052
   H     -0.112865     -0.901580      4.015047
