    7
 0030.xyz Energy 0.0117469
   O      0.658020     -0.953976      0.048501
   O     -0.914809      0.712720     -0.024051
   C      0.251270      0.236080     -0.023925
   H      1.081991      1.016435     -0.103013
   O     -0.028464     -0.025251      2.866723
   H     -0.054218     -0.371629      3.763651
   H      0.506054      0.772464      2.922067
