    7
 0031.xyz Energy 0.00111876
   O     -0.179510     -1.116295     -0.258988
   O      0.470156      0.979603      0.405900
   C     -0.284403      0.133763     -0.143755
   H     -1.224612      0.575856     -0.619010
   O      0.054732      0.033815      3.192130
   H     -0.852539      0.315559      3.342468
   H     -0.016282     -0.852345      2.824982
