    7
 0032.xyz Energy 0.0024734
   O     -0.322020     -0.044743     -1.113425
   O     -0.023183      0.106950      1.154750
   C      0.337791     -0.060870     -0.040432
   H      1.454447     -0.262101     -0.174197
   O     -0.064072     -0.012076      4.065937
   H      0.631499     -0.638791      3.845639
   H      0.385573      0.830483      4.180114
