    7
 0034.xyz Energy -0.00520005
   O      0.117065      0.275923      1.120525
   O      0.218714     -0.166584     -1.126871
   C     -0.328568     -0.106993      0.006203
   H     -1.414752     -0.460668      0.026815
   O     -0.056552     -0.012465      4.870540
   H      0.415575     -0.583646      4.257376
   H      0.482136      0.781518      4.937829
