    7
 0036.xyz Energy 0.0109909
   O      0.032007      1.130955     -0.255597
   O     -0.356737     -1.042430      0.362633
   C      0.317755     -0.086631     -0.104736
   H      1.368208     -0.372912     -0.451000
   O     -0.034832     -0.019291      3.128030
   H      0.296632     -0.566635      3.846130
   H      0.256292      0.872858      3.338834
