    7
 0037.xyz Energy -0.0125954
   O      0.365283      0.496471     -0.982598
   O     -0.037681     -0.411688      1.083751
   C     -0.320568     -0.082964     -0.098975
   H     -1.380281     -0.357185     -0.426263
   O     -0.006618      0.041247      4.790409
   H     -0.243867      0.197518      3.871489
   H      0.348926     -0.852279      4.808314
