    7
 0038.xyz Energy -0.00933841
   O      0.855977     -0.076745      0.778991
   O     -1.045874     -0.029289     -0.500713
   C      0.185814      0.103758     -0.272306
   H      0.800165      0.446758     -1.172434
   O      0.022217     -0.039718      4.527065
   H      0.524363      0.350614      3.805531
   H     -0.877035      0.279871      4.407358
