    7
 0039.xyz Energy 0.000174633
   O     -0.109579     -0.581533     -0.997610
   O     -0.242998      0.568465      0.981440
   C      0.345006      0.012791      0.015829
   H      1.485529      0.055022      0.068062
   O      0.001838     -0.062016      4.559097
   H      0.447187      0.698628      4.174120
   H     -0.476362      0.285808      5.317691
