    7
 0040.xyz Energy -0.034744
   O      0.607000      0.549000      0.263000
   O     -0.895000     -0.355000      1.699000
   C     -0.429000     -0.110000      0.552000
   H     -1.012000     -0.534000     -0.324000
   O      1.163200      1.061100      2.952360
   H      0.339200      0.517100      2.890360
   H      1.303200      1.098100      1.973360
