    7
 0044.xyz Energy -0.0307617
   O      0.607000      0.549000      0.263000
   O     -0.895000     -0.355000      1.699000
   C     -0.429000     -0.110000      0.552000
   H     -1.012000     -0.534000     -0.324000
   O      1.018000      0.958500      2.812200
   H      0.194000      0.414500      2.750200
   H      1.158000      0.995500      1.833200
