    4
 0003.xyz Energy -0.0205708
   O     -1.738000     -0.221000      0.000000
   H     -2.232000     -1.045000      0.000000
   H     -2.422000      0.454000      0.000000
   K      1.537916      0.195495      0.000000
