    4
 0005.xyz Energy -0.020243
   O     -1.738000     -0.221000      0.000000
   H     -2.232000     -1.045000      0.000000
   H     -2.422000      0.454000      0.000000
   K      1.564989      0.198937      0.000000
