    4
 0006.xyz Energy -0.0210693
   O     -1.738000     -0.221000      0.000000
   H     -2.232000     -1.045000      0.000000
   H     -2.422000      0.454000      0.000000
   K      1.497305      0.190332      0.000000
