    4
 0007.xyz Energy -0.0225998
   O     -1.738000     -0.221000      0.000000
   H     -2.232000     -1.045000      0.000000
   H     -2.422000      0.454000      0.000000
   K      1.375474      0.174842      0.000000
