    4
 0014.xyz Energy -0.0253891
   O     -1.736000     -0.379000      0.000000
   H     -2.148000     -1.250000      0.000000
   H     -2.475000      0.239000      0.000000
   K      0.668019      0.146148      0.000000
