    4
 0015.xyz Energy -0.0261758
   O     -1.736000     -0.379000      0.000000
   H     -2.148000     -1.250000      0.000000
   H     -2.475000      0.239000      0.000000
   K      1.028778      0.225022      0.000000
