    4
 0025.xyz Energy 3.95201e-05
   O     -0.367725      0.029219     -0.126509
   H      0.021577     -0.690655      0.378831
   H      0.346149      0.661436     -0.252322
   K      0.000000      0.000000     39.994865
