    4
 0043.xyz Energy 0.000464438
   O      0.222902     -0.298599     -0.115037
   H      0.508441      0.512470      0.315984
   H     -0.731343     -0.213871     -0.200947
   K      0.000000      0.000000      9.440932
