    4
 0064.xyz Energy 0.000514248
   O      0.031403      0.015197     -0.388411
   H      0.649298      0.361301      0.262405
   H     -0.680702     -0.376498      0.126007
   K      0.000000      0.000000     19.429256
