    4
 0076.xyz Energy 9.37412e-05
   O     -0.241076     -0.080929     -0.295658
   H      0.306264     -0.698378      0.198629
   H     -0.065189      0.779307      0.097029
   K      0.000000      0.000000     39.979913
