    4
 0090.xyz Energy 2.90244e-05
   O      0.009512     -0.000476     -0.389858
   H     -0.225276     -0.730730      0.190441
   H      0.215765      0.731205      0.199417
   K      0.000000      0.000000     83.367069
