    4
 0097.xyz Energy -2.64513e-05
   O     -0.298484      0.210429      0.136774
   H      0.540916      0.034093      0.572041
   H     -0.242432     -0.244522     -0.708815
   K      0.000000      0.000000     50.583220
