    4
 0104.xyz Energy -0.000205984
   O     -0.311924     -0.191613      0.134418
   H     -0.198200      0.760454      0.058394
   H      0.510124     -0.568841     -0.192812
   K      0.000000      0.000000     19.778302
