    4
 0119.xyz Energy -3.35421e-05
   O     -0.196957     -0.001532      0.336580
   H      0.637358      0.438798      0.149041
   H     -0.440402     -0.437266     -0.485621
   K      0.000000      0.000000     72.601283
