    4
 0124.xyz Energy -1.25179e-05
   O     -0.378834      0.060938      0.069652
   H      0.364712      0.296585      0.632460
   H      0.014122     -0.357523     -0.702112
   K      0.000000      0.000000     50.593561
