    4
 0140.xyz Energy -0.00118691
   O     -0.191186     -0.293582      0.171282
   H      0.734461     -0.271298     -0.089149
   H     -0.543274      0.564881     -0.082133
   K      0.000000      0.000000      9.786997
