    4
 0153.xyz Energy 4.30154e-05
   O     -0.119182     -0.349391     -0.125704
   H     -0.288001      0.506695     -0.530376
   H      0.407182     -0.157304      0.656080
   K      0.000000      0.000000     40.035766
