    4
 0164.xyz Energy -1.5999e-05
   O     -0.376112     -0.052364      0.088759
   H     -0.008260      0.238423     -0.751045
   H      0.384372     -0.186059      0.662286
   K      0.000000      0.000000     50.599036
