    4
 0180.xyz Energy 0.00170887
   O      0.136390     -0.207749     -0.300530
   H     -0.051314      0.735346     -0.278596
   H     -0.085075     -0.527597      0.579126
   K      0.000000      0.000000      9.474602
