    4
 0202.xyz Energy 0.000173919
   O     -0.206630      0.138337     -0.300412
   H     -0.008719     -0.781508     -0.100759
   H      0.215349      0.643171      0.401171
   K      0.000000      0.000000     29.625030
