    4
 0221.xyz Energy 0.000210323
   O     -0.009855     -0.369028     -0.125703
   H     -0.104468     -0.056515      0.779022
   H      0.114323      0.425544     -0.653319
   K      0.000000      0.000000     19.505793
