    4
 0243.xyz Energy 0.00145949
   O     -0.179407      0.197860     -0.284156
   H     -0.270938     -0.736273     -0.074012
   H      0.450345      0.538413      0.358168
   K      0.000000      0.000000      9.445015
