    4
 0254.xyz Energy 2.87248e-05
   O     -0.301262     -0.247447     -0.009578
   H      0.444560     -0.257080      0.597712
   H     -0.143298      0.504527     -0.588133
   K      0.000000      0.000000     19.470490
