    4
 0259.xyz Energy 1.29872e-06
   O     -0.301262     -0.247447     -0.009578
   H      0.444560     -0.257080      0.597712
   H     -0.143298      0.504527     -0.588133
   K      0.000000      0.000000     72.281046
