    4
 0272.xyz Energy 5.07444e-06
   O      0.341993      0.152760     -0.108562
   H     -0.093295     -0.624225     -0.471829
   H     -0.248698      0.471465      0.580390
   K      0.000000      0.000000    106.241811
