    4
 0282.xyz Energy 1.59959e-05
   O      0.171409      0.049271     -0.346802
   H     -0.770161      0.069978     -0.151455
   H      0.598751     -0.119249      0.498256
   K      0.000000      0.000000    106.229185
