    4
 0284.xyz Energy 0.000430261
   O      0.016900     -0.230138     -0.314374
   H      0.334028     -0.426654      0.572167
   H     -0.350928      0.656792     -0.257793
   K      0.000000      0.000000     19.466240
