    4
 0296.xyz Energy 4.25296e-05
   O     -0.265101      0.255202     -0.129126
   H      0.642902      0.152621     -0.429380
   H     -0.377801     -0.407824      0.558506
   K      0.000000      0.000000     40.018930
