    4
 0304.xyz Energy 0.000138762
   O     -0.123976      0.352991     -0.110034
   H      0.725408     -0.055053     -0.302878
   H     -0.601432     -0.297938      0.412912
   K      0.000000      0.000000     19.443843
