    4
 0314.xyz Energy 0.000468481
   O      0.144188     -0.092716     -0.350277
   H      0.146435     -0.633599      0.445075
   H     -0.290623      0.726316     -0.094798
   K      0.000000      0.000000     19.447793
