    4
 0346.xyz Energy -0.0212088
   O     -1.736000     -0.379000      0.000000
   H     -2.148000     -1.251000      0.000000
   H     -2.475000      0.239000      0.000000
   K      1.440211      0.314868      0.000000
