    4
 0426.xyz Energy 0.0223827
   O     -1.738000     -0.221000      0.000000
   H     -2.232000     -1.045000      0.000000
   H     -2.422000      0.454000      0.000000
   K      0.233867      0.029700      0.000000
