    4
 0440.xyz Energy -0.0146247
   O     -1.738000     -0.221000      0.000000
   H     -2.232000     -1.045000      0.000000
   H     -2.422000      0.454000      0.000000
   K      2.120000      0.269500      0.000000
