    9
 0021.xyz Energy -0.158948
   N     -0.171707     -0.010448      0.666170
   C      0.196542      0.011950     -0.762561
   H     -0.636441     -0.892224      0.919609
   H     -0.815727      0.756883      0.899242
   H      0.656522      0.087047      1.268209
   H     -0.720231     -0.094877     -1.345401
   H      0.877228     -0.821777     -0.945114
   H      0.682740      0.967738     -0.967145
  Cl      0.000000      0.000000      4.000000
