    9
 0023.xyz Energy -0.11497
   N      0.230581     -0.225333     -0.607809
   C     -0.263936      0.257948      0.695752
   H      1.142178      0.190232     -0.840263
   H     -0.420759      0.012774     -1.367375
   H      0.346990     -1.247276     -0.608976
   H     -0.365937      1.342945      0.632793
   H      0.467179     -0.024216      1.455763
   H     -1.228807     -0.216872      0.883754
  Cl      0.000000      0.000000      4.520000
