    9
 0025.xyz Energy -0.112351
   N      0.363687      0.078144     -0.578792
   C     -0.416319     -0.089442      0.662533
   H      0.100736      0.940888     -1.073025
   H      0.212343     -0.707274     -1.225394
   H      1.372315      0.128390     -0.383691
   H     -1.472257     -0.135763      0.389702
   H     -0.213690      0.771060      1.303031
   H     -0.092488     -1.017416      1.137687
  Cl      0.000000      0.000000      4.600000
