    9
 0027.xyz Energy -0.170257
   N      0.030323      0.045555      0.685843
   C     -0.034698     -0.052151     -0.785078
   H      1.002348      0.117646      1.014031
   H     -0.387536     -0.779949      1.135082
   H     -0.474426      0.873396      1.029102
   H      0.516108     -0.945577     -1.085060
   H      0.421921      0.848407     -1.200115
   H     -1.086335     -0.125539     -1.068708
  Cl      0.000000      0.000000      3.660000
