    9
 0031.xyz Energy -0.139375
   N     -0.561842      0.034526      0.395622
   C      0.643141     -0.039512     -0.452857
   H     -0.647851      0.955696      0.844829
   H     -0.538643     -0.672761      1.142004
   H     -1.417121     -0.123065     -0.153544
   H      1.511770      0.135064      0.184789
   H      0.558634      0.731606     -1.220970
   H      0.677054     -1.035505     -0.898525
  Cl      0.000000      0.000000      4.280000
