    9
 0032.xyz Energy -0.117726
   N     -0.022727      0.004183     -0.687634
   C      0.026020     -0.004775      0.787129
   H      0.601203      0.722089     -1.078862
   H     -0.972656      0.199889     -1.030001
   H      0.266044     -0.902692     -1.077645
   H     -0.289753      0.979606      1.137652
   H      1.054379     -0.216692      1.086009
   H     -0.653451     -0.783424      1.138977
  Cl      0.000000      0.000000      4.380000
