    9
 0035.xyz Energy -0.133055
   N      0.421043     -0.384985     -0.384558
   C     -0.481972      0.440678      0.440200
   H     -0.085644     -1.157548     -0.836391
   H      1.173433     -0.797979      0.182209
   H      0.863432      0.171574     -1.127829
   H     -0.917443     -0.203843      1.206062
   H     -1.253921      0.848157     -0.215405
   H      0.112401      1.238372      0.889844
  Cl      0.000000      0.000000      3.860000
