    9
 0036.xyz Energy -0.149415
   N      0.543152     -0.419541      0.048431
   C     -0.621748      0.480235     -0.055445
   H      0.483361     -1.189890     -0.630337
   H      0.611382     -0.837565      0.985704
   H      1.422281      0.083364     -0.130837
   H     -1.518221     -0.109723      0.144235
   H     -0.638424      0.889523     -1.067357
   H     -0.499416      1.271871      0.686257
  Cl      0.000000      0.000000      3.760000
