    9
 0037.xyz Energy -0.117266
   N     -0.481885      0.253748     -0.420445
   C      0.551605     -0.290475      0.481276
   H     -1.219978     -0.438181     -0.605353
   H     -0.081244      0.528581     -1.326996
   H     -0.931773      1.085584     -0.016011
   H      0.988870     -1.166178     -0.001974
   H      0.065984     -0.561898      1.420565
   H      1.301615      0.487247      0.637502
  Cl      0.000000      0.000000      4.480000
