    9
 0045.xyz Energy -0.141806
   N      0.469836      0.493785     -0.093837
   C     -0.537807     -0.565241      0.107414
   H      1.321310      0.121980     -0.534848
   H      0.745981      0.922893      0.799186
   H      0.109856      1.243425     -0.699126
   H     -0.097618     -1.326410      0.754286
   H     -0.787832     -0.978715     -0.871508
   H     -1.412157     -0.109539      0.576051
  Cl      0.000000      0.000000      3.820000
