    9
 0047.xyz Energy -0.126174
   N     -0.004543      0.415571      0.548320
   C      0.005189     -0.475706     -0.627653
   H     -0.558245      0.015533      1.317164
   H     -0.409707      1.332933      0.319916
   H      0.946973      0.577385      0.903781
   H     -1.027680     -0.607328     -0.955440
   H      0.444349     -1.427241     -0.321907
   H      0.605610      0.002345     -1.404013
  Cl      0.000000      0.000000      4.820000
