    9
 0049.xyz Energy -0.158343
   N     -0.305464      0.611572     -0.077762
   C      0.349658     -0.700064      0.089000
   H     -1.040618      0.574661     -0.796040
   H      0.369158      1.333937     -0.362285
   H     -0.743985      0.925488      0.798067
   H      0.793234     -0.976032     -0.869471
   H     -0.414627     -1.419311      0.389522
   H      1.115128     -0.595348      0.860274
  Cl      0.000000      0.000000      3.380000
