    9
 0052.xyz Energy -0.141736
   N     -0.677785     -0.069536     -0.095641
   C      0.775856      0.079590      0.109468
   H     -0.888860     -0.855814     -0.724093
   H     -1.086358      0.777613     -0.511918
   H     -1.165672     -0.243925      0.792882
   H      1.233607      0.261514     -0.864675
   H      1.147618     -0.846988      0.551065
   H      0.933244      0.925490      0.781373
  Cl      0.000000      0.000000      3.820000
