    9
 0053.xyz Energy -0.137394
   N     -0.123861      0.101559      0.669118
   C      0.141784     -0.116240     -0.765935
   H     -0.384265      1.078417      0.857997
   H      0.703817     -0.114046      1.240384
   H     -0.893495     -0.493872      1.002351
   H      0.963791      0.540488     -1.056796
   H     -0.769402      0.128437     -1.315147
   H      0.411252     -1.165595     -0.900157
  Cl      0.000000      0.000000      4.560000
