    2
 0002.xyz Energy -0.188302
  Na     -0.000000      0.000000     -1.426000
  Cl      0.000000      0.000000      1.497895
