    2
 0006.xyz Energy -0.185875
  Na     -0.000000      0.000000     -1.426000
  Cl      0.000000      0.000000      1.547663
