    2
 0007.xyz Energy -0.191266
  Na     -0.000000      0.000000     -1.426000
  Cl      0.000000      0.000000      1.435684
