    2
 0008.xyz Energy -0.198314
  Na     -0.000000      0.000000     -1.426000
  Cl      0.000000      0.000000      1.273937
