    2
 0009.xyz Energy -0.204514
  Na     -0.000000      0.000000     -1.426000
  Cl      0.000000      0.000000      1.062421
