    2
 0010.xyz Energy -0.200644
  Na     -0.000000      0.000000     -1.426000
  Cl      0.000000      0.000000      0.801137
