    2
 0011.xyz Energy -0.150311
  Na     -0.000000      0.000000     -1.426000
  Cl      0.000000      0.000000      0.490084
