    2
 0028.xyz Energy -0.192422
  Na     -0.000000      0.000000     -1.426000
  Cl      0.000000      0.000000      1.410800
