    2
 0066.xyz Energy -0.0895322
  Na     -0.000000      0.000000     -1.426000
  Cl      0.000000      0.000000      0.347000
