    2
 0070.xyz Energy 116.252
  Na     -0.000000      0.000000     -1.426000
  Cl      0.000000      0.000000     -1.189600
