    2
 0074.xyz Energy -0.130263
  Na     -0.000000      0.000000     -1.426000
  Cl      0.000000      0.000000     -5.681200
