    2
 0075.xyz Energy -0.0951647
  Na     -0.000000      0.000000     -1.426000
  Cl      0.000000      0.000000     -7.099600
