    2
 0076.xyz Energy -0.0739649
  Na     -0.000000      0.000000     -1.426000
  Cl      0.000000      0.000000     -8.636200
