    2
 0078.xyz Energy -0.0498385
  Na     -0.000000      0.000000     -1.426000
  Cl      0.000000      0.000000    -12.064000
