    2
 0079.xyz Energy -0.0422827
  Na     -0.000000      0.000000     -1.426000
  Cl      0.000000      0.000000    -13.955200
