    2
 0080.xyz Energy -0.0364235
  Na     -0.000000      0.000000     -1.426000
  Cl      0.000000      0.000000    -15.964600
