    2
 0081.xyz Energy -0.031766
  Na     -0.000000      0.000000     -1.426000
  Cl      0.000000      0.000000    -18.092200
