    2
 0082.xyz Energy -0.0279898
  Na     -0.000000      0.000000     -1.426000
  Cl      0.000000      0.000000    -20.338000
