    2
 0083.xyz Energy -0.0248775
  Na     -0.000000      0.000000     -1.426000
  Cl      0.000000      0.000000    -22.702000
