    2
 0085.xyz Energy -0.0200784
  Na     -0.000000      0.000000     -1.426000
  Cl      0.000000      0.000000    -27.784600
