    2
 0086.xyz Energy -0.0182006
  Na     -0.000000      0.000000     -1.426000
  Cl      0.000000      0.000000    -30.503200
