    2
 0089.xyz Energy -0.0403719
  Na     -0.000000      0.000000     -1.426000
  Cl      0.000000      0.000000    -39.368200
