    2
 0107.xyz Energy -0.187847
  Na     -0.000000      0.000000     -1.426000
  Cl      0.000000      0.000000      1.507290
