    2
 0108.xyz Energy -0.188547
  Na     -0.000000      0.000000     -1.426000
  Cl      0.000000      0.000000      1.492816
