    2
 0109.xyz Energy -0.1922
  Na     -0.000000      0.000000     -1.426000
  Cl      0.000000      0.000000      1.415624
