    2
 0111.xyz Energy -0.204334
  Na     -0.000000      0.000000     -1.426000
  Cl      0.000000      0.000000      1.073086
