    2
 0113.xyz Energy -0.146996
  Na     -0.000000      0.000000     -1.426000
  Cl      0.000000      0.000000      0.479673
