    2
 0114.xyz Energy 0.149813
  Na     -0.000000      0.000000     -1.426000
  Cl      0.000000      0.000000      0.088890
