    2
 0115.xyz Energy 1.43472
  Na     -0.000000      0.000000     -1.426000
  Cl      0.000000      0.000000     -0.364612
