    2
 0116.xyz Energy 16.0222
  Na     -0.000000      0.000000     -1.426000
  Cl      0.000000      0.000000     -0.880833
