    2
 0119.xyz Energy 0.383007
  Na     -0.000000      0.000000     -1.426000
  Cl      0.000000      0.000000     -2.805804
