    2
 0123.xyz Energy -0.113501
  Na     -0.000000      0.000000     -1.426000
  Cl      0.000000      0.000000     -6.250490
