    2
 0124.xyz Energy -0.0922207
  Na     -0.000000      0.000000     -1.426000
  Cl      0.000000      0.000000     -7.268457
