    2
 0128.xyz Energy -0.0502976
  Na     -0.000000      0.000000     -1.426000
  Cl      0.000000      0.000000    -11.967510
