    2
 0129.xyz Energy -0.0446287
  Na     -0.000000      0.000000     -1.426000
  Cl      0.000000      0.000000    -13.299069
