    2
 0130.xyz Energy -0.0399228
  Na     -0.000000      0.000000     -1.426000
  Cl      0.000000      0.000000    -14.693347
