    2
 0131.xyz Energy -0.035963
  Na     -0.000000      0.000000     -1.426000
  Cl      0.000000      0.000000    -16.150343
