    2
 0132.xyz Energy -0.0325928
  Na     -0.000000      0.000000     -1.426000
  Cl      0.000000      0.000000    -17.670057
