    2
 0133.xyz Energy -0.0296959
  Na     -0.000000      0.000000     -1.426000
  Cl      0.000000      0.000000    -19.252490
