    2
 0136.xyz Energy -0.0230617
  Na     -0.000000      0.000000     -1.426000
  Cl      0.000000      0.000000    -24.376098
