    2
 0137.xyz Energy -0.021355
  Na     -0.000000      0.000000     -1.426000
  Cl      0.000000      0.000000    -26.209404
