    2
 0138.xyz Energy -0.0198369
  Na     -0.000000      0.000000     -1.426000
  Cl      0.000000      0.000000    -28.105429
