    2
 0139.xyz Energy -0.0184797
  Na     -0.000000      0.000000     -1.426000
  Cl      0.000000      0.000000    -30.064171
