    2
 0140.xyz Energy -0.017261
  Na     -0.000000      0.000000     -1.426000
  Cl      0.000000      0.000000    -32.085633
