    2
 0141.xyz Energy -0.0161621
  Na     -0.000000      0.000000     -1.426000
  Cl      0.000000      0.000000    -34.169812
