    2
 0142.xyz Energy -0.0368914
  Na     -0.000000      0.000000     -1.426000
  Cl      0.000000      0.000000    -36.316710
