    2
 0143.xyz Energy -0.0547392
  Na     -0.000000      0.000000     -1.426000
  Cl      0.000000      0.000000    -11.118400
