    2
 0145.xyz Energy -0.0396553
  Na     -0.000000      0.000000     -1.426000
  Cl      0.000000      0.000000    -14.782600
