    2
 0147.xyz Energy -0.0302617
  Na     -0.000000      0.000000     -1.426000
  Cl      0.000000      0.000000    -18.919600
