    2
 0148.xyz Energy -0.0550289
  Na     -0.000000      0.000000     -1.426000
  Cl      0.000000      0.000000    -50.515184
