    6
 0009.xyz Energy -0.000548715
   O     -0.105031      0.045852     -0.023560
   H      0.634381      0.473699      0.418410
   H      0.206049     -0.840589     -0.229892
   O      0.010923     -0.114921      3.160952
   H      0.691390      0.496046      3.458954
   H     -0.778793      0.423518      3.053466
