    6
 0057.xyz Energy 2.629e-07
   O     -0.059164      0.049330      0.382291
   H     -0.179545     -0.756360     -0.129095
   H      0.238709      0.707031     -0.253197
   O      0.306105      0.168592     63.509137
   H      0.143221     -0.772581     63.622301
   H     -0.449326      0.603988     63.915213
