    6
 0075.xyz Energy -3.6876e-07
   O     -0.013662      0.036843      0.387990
   H     -0.227959      0.704024     -0.270864
   H      0.241621     -0.740867     -0.117126
   O      0.156966     -0.280522     63.532059
   H     -0.635498     -0.337442     62.989930
   H      0.478532      0.617965     63.411812
