    6
 0112.xyz Energy 5.14107e-06
   O      0.087675     -0.030621     -0.378755
   H      0.479344     -0.516033      0.353443
   H     -0.567019      0.546655      0.025312
   O      0.013814     -0.307192     26.109016
   H     -0.643162      0.395189     26.095344
   H      0.629348     -0.087997     25.403172
