    6
 0146.xyz Energy -2.6908e-07
   O      0.041239      0.060100     -0.383103
   H      0.413914      0.581330      0.334237
   H     -0.455152     -0.641429      0.048866
   O      0.254736      0.218946     63.191001
   H      0.428398     -0.606062     63.653977
   H     -0.683133      0.387116     63.322394
