    6
 0175.xyz Energy -6.882e-08
   O      0.202494     -0.321414      0.088147
   H     -0.365544     -0.178787     -0.674830
   H      0.163050      0.500201      0.586683
   O      0.228082      0.270752     53.235548
   H      0.300815     -0.098287     54.120796
   H     -0.528897     -0.172465     52.840980
