    6
 0189.xyz Energy 2.188e-08
   O      0.177595      0.061635      0.341674
   H     -0.177871      0.722184     -0.260374
   H      0.000276     -0.783820     -0.081300
   O     -0.331388      0.162996     92.592921
   H      0.542766      0.237689     92.198688
   H     -0.211378     -0.400685     93.362989
