    6
 0218.xyz Energy -1.3135e-07
   O      0.013427      0.081725      0.381079
   H     -0.206846      0.680995     -0.338294
   H      0.193419     -0.762720     -0.042784
   O      0.328169     -0.109115     82.967659
   H     -0.564508     -0.425253     83.135970
   H      0.236339      0.534368     82.258688
