    6
 0222.xyz Energy 7.57462e-06
   O     -0.008557     -0.167181      0.352218
   H     -0.300521     -0.545930     -0.482318
   H      0.309078      0.713112      0.130100
   O      0.081481      0.029271     26.104543
   H      0.654502      0.251595     26.844383
   H     -0.735983     -0.280866     26.505430
