    6
 0256.xyz Energy 3.6245e-07
   O      0.111876     -0.046432     -0.370686
   H      0.581496     -0.324589      0.421293
   H     -0.693372      0.371021     -0.050607
   O     -0.278086     -0.040217     63.169975
   H     -0.373970     -0.118713     62.216146
   H      0.652056      0.158929     63.312521
