    6
 0419.xyz Energy -2.8572e-05
   O      0.122109     -0.045135     -0.367604
   H      0.564572     -0.335433      0.435576
   H     -0.686681      0.380568     -0.067972
   O      0.359144      0.134132      7.932725
   H     -0.063244     -0.640078      7.548888
   H     -0.295900      0.505945      8.530903
