    6
 0438.xyz Energy -0.00800248
   O     -1.629000     -0.041000      0.371000
   H     -0.698000     -0.092000      0.093000
   H     -2.067000     -0.735000     -0.137000
   O      1.093264      0.024109     -0.252518
   H      1.327264      0.909109     -0.562518
   H      1.608264     -0.087891      0.557482
