    6
 0492.xyz Energy -0.00481564
   O     -0.702000     -0.056000      0.010000
   H     -1.022000      0.847000     -0.011000
   H      0.258000      0.042000      0.005000
   O     -3.718477      0.072386      0.013103
   H     -3.342477     -0.366614      0.779103
   H     -3.346477     -0.403614     -0.732897
