    6
 0590.xyz Energy -7.98228e-06
   O      0.026165     -0.028460     -0.388054
   H     -0.285498     -0.698234      0.227911
   H      0.259333      0.726694      0.160142
   O      0.138682      0.083046     25.683310
   H     -0.487153      0.597387     26.201891
   H      0.348472     -0.680433     26.229416
