    6
 0602.xyz Energy 3.6857e-07
   O     -0.221716     -0.287815      0.141720
   H      0.708540     -0.330378     -0.099020
   H     -0.486823      0.618193     -0.042700
   O      0.202857     -0.002462     44.449811
   H     -0.390010      0.684595     44.768565
   H      0.187153     -0.682133     45.130211
