   15
 0001.xyz Energy -0.114084
   N      0.652822     -0.217167      0.006034
   C     -0.747283      0.248580     -0.006898
   H      0.728085     -1.167505      0.391950
   H      1.246847      0.397178      0.578392
   H      1.050298     -0.235915     -0.942428
   H     -1.109563      0.246036      1.022827
   H     -1.322912     -0.440975     -0.627321
   H     -0.759931      1.256914     -0.425081
   C     -0.006212     -1.344999      3.745236
   C     -0.005288      0.104846      4.345396
   O     -1.130653      0.539295      4.805427
   O      1.136910      0.710707      4.309748
   H     -0.999764     -1.803316      3.821954
   H      0.304408     -1.300778      2.690701
   H      0.733066     -1.960072      4.279370
