   15
 0002.xyz Energy -0.113695
   N     -0.154938     -0.367902     -0.560372
   C      0.177365      0.421141      0.641446
   H      0.621305     -0.368023     -1.235047
   H     -0.982054      0.010727     -1.040371
   H     -0.357354     -1.347594     -0.321311
   H      0.380563      1.445255      0.322875
   H      1.058500     -0.028559      1.103109
   H     -0.681387      0.382347      1.314361
   C      1.034751      0.414489      5.795047
   C     -0.080730     -0.038288      4.788599
   O     -0.309148     -1.306740      4.713269
   O     -0.652320      0.922081      4.137497
   H      1.464318     -0.446463      6.321660
   H      1.824259      0.947874      5.244899
   H      0.605113      1.121639      6.519957
