   15
 0004.xyz Energy -0.133271
   N     -0.205957     -0.429072      0.496844
   C      0.235769      0.491151     -0.568731
   H      0.573163     -0.685577      1.117260
   H     -0.589147     -1.299519      0.105223
   H     -0.938544     -0.003234      1.079850
   H      1.008828     -0.016231     -1.148843
   H      0.629817      1.390352     -0.091316
   H     -0.631515      0.724160     -1.189454
   C     -0.377340      1.382764      4.330198
   C      0.032754     -0.106798      4.604553
   O      0.871118     -0.306446      5.565857
   O     -0.520606     -0.978650      3.825694
   H      0.115512      2.063987      5.034555
   H     -0.103549      1.649784      3.298585
   H     -1.469717      1.480720      4.415405
