   15
 0008.xyz Energy -0.119942
   N      0.002593      0.014188      0.687871
   C     -0.002981     -0.016236     -0.787400
   H     -0.952519     -0.026359      1.067152
   H      0.440425      0.874333      1.043304
   H      0.524242     -0.782218      1.077152
   H     -0.568647      0.849394     -1.137106
   H     -0.477796     -0.948074     -1.100434
   H      1.033783      0.029238     -1.126259
   C      1.313543      0.578992      4.602945
   C     -0.104970     -0.040204      4.861127
   O     -0.934617      0.681178      5.537968
   O     -0.285777     -1.219778      4.362256
   H      1.391478      1.582482      5.038858
   H      2.080584     -0.078324      5.038914
   H      1.498422      0.625074      3.519506
