   15
 0010.xyz Energy -0.0998233
   N      0.120193     -0.447781      0.508351
   C     -0.137573      0.512567     -0.581911
   H      1.109917     -0.725975      0.536513
   H     -0.438657     -1.303613      0.393813
   H     -0.114411     -0.045438      1.425411
   H      0.129614      0.028703     -1.523225
   H      0.481524      1.393934     -0.403943
   H     -1.198907      0.767135     -0.558702
   C      0.908900     -0.422384      4.425336
   C     -0.074747      0.036124      5.558673
   O     -1.005932      0.861696      5.214950
   O      0.161755     -0.469309      6.725532
   H      0.641266      0.031039      3.463116
   H      1.935646     -0.137806      4.699732
   H      0.883328     -1.519099      4.343444
