   15
 0012.xyz Energy -0.143638
   N     -0.641215     -0.247215      0.033211
   C      0.733989      0.282996     -0.038009
   H     -1.325464      0.505151      0.186465
   H     -0.743810     -0.920510      0.803943
   H     -0.902083     -0.730361     -0.836523
   H      0.949316      0.781044      0.909181
   H      0.777598      0.987476     -0.870816
   H      1.408730     -0.559610     -0.200837
   C     -0.682569     -0.340059      5.659065
   C      0.048299      0.028634      4.320357
   O     -0.700266      0.415957      3.342373
   O      1.335020     -0.100317      4.346364
   H     -1.765965     -0.193356      5.570646
   H     -0.467021     -1.388751      5.912580
   H     -0.284788      0.282763      6.473931
