   15
 0015.xyz Energy -0.0943734
   N     -0.343191      0.577364     -0.149151
   C      0.392838     -0.660906      0.170740
   H     -0.988651      0.836038      0.608613
   H     -0.900142      0.471187     -1.007295
   H      0.298500      1.368296     -0.292602
   H     -0.339647     -1.458089      0.310572
   H      0.960937     -0.484722      1.086155
   H      1.057023     -0.880554     -0.667345
   C      0.367655     -0.877950      4.099611
   C     -0.023676      0.067470      5.289268
   O      0.751944      0.047215      6.321170
   O     -1.094177      0.768621      5.101198
   H      1.290107     -1.428856      4.320227
   H     -0.454360     -1.585112      3.913333
   H      0.497824     -0.278476      3.186467
