   15
 0024.xyz Energy -0.112936
   N     -0.194771     -0.209485      0.625744
   C      0.222955      0.239783     -0.716286
   H      0.199436     -1.132155      0.851617
   H     -1.218251     -0.285165      0.693875
   H      0.116170      0.446672      1.354231
   H     -0.135040     -0.494246     -1.440598
   H      1.312955      0.299779     -0.724133
   H     -0.225412      1.218926     -0.895227
   C     -1.453465     -0.022932      5.301131
   C      0.113889      0.007166      5.232289
   O      0.642938      0.969022      4.552760
   O      0.707731     -0.948317      5.870537
   H     -1.888916      0.821560      4.753132
   H     -1.816610     -0.970824      4.876735
   H     -1.771836      0.008461      6.353651
