   15
 0025.xyz Energy -0.13675
   N     -0.166192     -0.275773      0.608033
   C      0.190241      0.315662     -0.696015
   H      0.223111     -1.222317      0.709199
   H     -1.186017     -0.346916      0.721061
   H      0.192700      0.291404      1.387408
   H     -0.216763     -0.328825     -1.477405
   H      1.279293      0.363735     -0.754449
   H     -0.249781      1.313703     -0.741495
   C      0.401524     -1.397289      5.056450
   C     -0.031302      0.109995      5.001666
   O     -0.265209      0.684360      6.134014
   O     -0.108123      0.614009      3.812958
   H      0.460687     -1.753569      6.092139
   H     -0.324176     -2.003292      4.493773
   H      1.377992     -1.513317      4.563306
