   15
 0029.xyz Energy -0.0798878
   N     -0.284085     -0.000629     -0.626634
   C      0.325197      0.000730      0.717299
   H      0.319909      0.471231     -1.312403
   H     -1.190970      0.484591     -0.627438
   H     -0.445498     -0.958796     -0.963947
   H      0.470267      1.040275      1.017111
   H      1.279250     -0.525843      0.651994
   H     -0.360284     -0.511423      1.395229
   C      0.387520      0.670630      4.748372
   C     -0.026737     -0.048945      6.079855
   O      0.606303      0.305231      7.147862
   O     -0.966614     -0.928904      5.956322
   H      1.175538      1.411908      4.928985
   H      0.739469     -0.080116      4.025185
   H     -0.494728      1.160038      4.309896
