   15
 0033.xyz Energy -0.100478
   N     -0.478466     -0.086754      0.486744
   C      0.547687      0.099315     -0.557178
   H     -1.414541      0.161590      0.140584
   H     -0.286948      0.500233      1.309330
   H     -0.515637     -1.063878      0.805750
   H      0.537514      1.150341     -0.851840
   H      0.289344     -0.546780     -1.398356
   H      1.512919     -0.179387     -0.130065
   C     -0.637688     -0.902868      4.313952
   C      0.055492      0.069678      5.331743
   O      1.345761      0.106943      5.306498
   O     -0.753671      0.732025      6.092997
   H      0.104645     -1.418435      3.692487
   H     -1.237567     -1.639979      4.868297
   H     -1.328139     -0.330600      3.676825
