   15
 0034.xyz Energy -0.11002
   N     -0.235412      0.280646      0.582403
   C      0.269483     -0.321243     -0.666673
   H      0.007766      1.278123      0.642762
   H      0.160619     -0.185008      1.409571
   H     -1.259336      0.207289      0.646573
   H      1.355577     -0.212056     -0.674747
   H     -0.185107      0.213673     -1.502720
   H     -0.019331     -1.374023     -0.670603
   C     -1.365069      0.128763      6.406651
   C      0.105514     -0.007532      5.876509
   O      0.306393      0.317333      4.643248
   O      0.962231     -0.437410      6.744953
   H     -2.032570      0.511480      5.624949
   H     -1.718526     -0.854482      6.751302
   H     -1.377482      0.804456      7.274653
