   15
 0035.xyz Energy -0.165038
   N     -0.678340      0.057355      0.099700
   C      0.776492     -0.065644     -0.114116
   H     -0.919660      0.963089      0.522959
   H     -1.028782     -0.679829      0.725504
   H     -1.195016     -0.017598     -0.786498
   H      1.265423      0.021681      0.857947
   H      1.085117      0.740325     -0.782641
   H      0.966641     -1.042471     -0.562921
   C     -0.465328      0.341680      5.255495
   C      0.034618     -0.021395      3.813111
   O     -0.251133      0.818584      2.875239
   O      0.683552     -1.136689      3.723885
   H     -0.992180      1.303705      5.260126
   H     -1.134920     -0.452725      5.617507
   H      0.395478      0.381925      5.939263
