   15
 0036.xyz Energy -0.14053
   N     -0.200148     -0.112048      0.648661
   C      0.229119      0.128267     -0.742511
   H      0.232745      0.559918      1.295809
   H      0.059832     -1.056137      0.963281
   H     -1.220141     -0.023118      0.746776
   H      1.314660      0.019885     -0.780456
   H     -0.074120      1.140857     -1.015400
   H     -0.261843     -0.612782     -1.376211
   C      0.715460     -0.890183      6.061396
   C     -0.054792      0.066223      5.084543
   O      0.024490     -0.209440      3.825756
   O     -0.689307      1.037106      5.657024
   H      1.216164     -1.696317      5.511368
   H      1.457141     -0.308083      6.628455
   H      0.007104     -1.315193      6.787854
