   15
 0037.xyz Energy -0.112196
   N     -0.027663     -0.025725      0.686985
   C      0.031658      0.029458     -0.786385
   H     -0.852864      0.470943      1.047681
   H      0.803566      0.405970      1.111929
   H     -0.078780     -0.996188      1.023892
   H      0.084256      1.079690     -1.079356
   H     -0.873224     -0.441686     -1.174939
   H      0.924227     -0.512270     -1.105172
   C     -0.202172     -1.187060      4.223399
   C      0.011576      0.096118      5.100899
   O     -0.633024      1.155122      4.740589
   O      0.821441     -0.052243      6.098428
   H     -0.909815     -0.994152      3.407853
   H      0.765448     -1.508705      3.810190
   H     -0.575324     -2.003951      4.858687
