   15
 0038.xyz Energy -0.115991
   N      0.073359     -0.180326      0.659906
   C     -0.083975      0.206405     -0.755392
   H      0.328692     -1.172403      0.751155
   H     -0.797792     -0.035258      1.187098
   H      0.809014      0.372148      1.119801
   H     -0.874450     -0.412038     -1.184652
   H      0.869050      0.029949     -1.257753
   H     -0.353279      1.263946     -0.784637
   C      0.641172     -1.258706      4.531604
   C     -0.045016      0.100923      4.909490
   O      0.677515      0.950327      5.560092
   O     -1.273882      0.219073      4.523635
   H      1.682602     -1.284068      4.874922
   H      0.077770     -2.087412      4.985819
   H      0.602235     -1.394762      3.440679
