   15
 0041.xyz Energy -0.21878
   N     -0.360000     -0.088000      0.621000
   C      0.883000     -0.057000     -0.123000
   H     -0.463000      0.753000      1.249000
   H     -0.335000     -0.801000      1.398000
   H     -1.240000     -0.207000      0.127000
   H      1.704000      0.075000      0.584000
   H      0.839000      0.779000     -0.824000
   H      0.982000     -1.004000     -0.658000
   C     -0.507320      0.294360      4.886320
   C     -0.476320      0.156360      3.397320
   O     -0.551320      1.200360      2.681320
   O     -0.369320     -1.002640      2.893320
   H     -0.953320      1.249360      5.180320
   H     -1.096320     -0.512640      5.332320
   H      0.511680      0.247360      5.279320
