    6
 0000.xyz Energy -0.154892
   H      0.232366      0.716512     -0.693672
   N     -0.000001     -0.000004      0.000004
   H      0.860997     -0.354745      0.425824
   H     -0.596600      0.407968      0.725385
   H     -0.496746     -0.769680     -0.457589
  Br      0.000000      0.000000      3.640000
