    6
 0001.xyz Energy -0.156086
   H      0.298539     -0.909349      0.364037
   N     -0.000002      0.000005     -0.000002
   H     -0.376241     -0.117514     -0.945050
   H     -0.724159      0.390617      0.609560
   H      0.801884      0.636177     -0.028520
  Br      0.000000      0.000000      3.560000
