    6
 0003.xyz Energy -0.149201
   H     -0.588161     -0.838002     -0.019610
   N      0.000003      0.000005      0.000000
   H      0.517766      0.033000      0.882789
   H      0.660312     -0.028087     -0.782145
   H     -0.589962      0.833025     -0.081035
  Br      0.000000      0.000000      3.840000
