    6
 0004.xyz Energy -0.14516
   H     -0.204442      0.329823      0.947621
   N      0.000001     -0.000002     -0.000005
   H     -0.635836     -0.766103     -0.239345
   H     -0.127112      0.769142     -0.663939
   H      0.967374     -0.332837     -0.044265
  Br      0.000000      0.000000      3.980000
