    6
 0010.xyz Energy -0.162755
   H     -0.055773      0.980438      0.290164
   N      0.000000     -0.000005     -0.000002
   H     -0.839564     -0.496467      0.311672
   H      0.067380     -0.050611     -1.020515
   H      0.827952     -0.433286      0.418701
  Br      0.000000      0.000000      3.340000
