    6
 0011.xyz Energy -0.148796
   H      0.338277     -0.596002     -0.760864
   N     -0.000002      0.000003      0.000004
   H      0.773897      0.565257      0.360632
   H     -0.738039      0.616545     -0.351743
   H     -0.374109     -0.585845      0.751918
  Br      0.000000      0.000000      3.800000
