    6
 0013.xyz Energy -0.14996
   H     -1.008649      0.039484     -0.172144
   N      0.000006     -0.000000      0.000001
   H      0.273641     -0.965070      0.205540
   H      0.501111      0.327292     -0.830855
   H      0.233820      0.598297      0.797446
  Br      0.000000      0.000000      3.780000
