    6
 0016.xyz Energy -0.146003
   H     -1.013452     -0.029786     -0.143502
   N      0.000006      0.000000      0.000001
   H      0.378888     -0.950302     -0.043094
   H      0.431496      0.572966     -0.730803
   H      0.202991      0.407119      0.917388
  Br      0.000000      0.000000      3.940000
