    6
 0018.xyz Energy -0.151071
   H      0.066655     -1.021119      0.037904
   N     -0.000000      0.000006     -0.000000
   H      0.941119      0.403357     -0.009238
   H     -0.498932      0.278151     -0.849853
   H     -0.508837      0.339534      0.821190
  Br      0.000000      0.000000      3.760000
