    6
 0019.xyz Energy -0.146375
   H     -0.996783     -0.086613     -0.217913
   N      0.000005      0.000000      0.000001
   H      0.252234      0.990809      0.056244
   H      0.193746     -0.453030      0.897652
   H      0.550728     -0.451173     -0.735999
  Br      0.000000      0.000000      3.920000
