    6
 0020.xyz Energy -0.156172
   H     -0.428177      0.735048      0.570029
   N      0.000002     -0.000004     -0.000003
   H     -0.600315     -0.201052     -0.804790
   H      0.917624      0.313897     -0.328612
   H      0.110835     -0.847838      0.563417
  Br      0.000000      0.000000      3.580000
