    6
 0022.xyz Energy -0.144224
   H      0.375660     -0.916000     -0.261513
   N     -0.000002      0.000005      0.000001
   H      0.243158      0.203289      0.973671
   H      0.399970      0.719460     -0.609060
   H     -1.018760     -0.006818     -0.103118
  Br      0.000000      0.000000      4.020000
