    6
 0023.xyz Energy -0.14638
   H     -0.473659     -0.906382      0.051802
   N      0.000003      0.000005     -0.000000
   H     -0.697935      0.748733     -0.027782
   H      0.597286      0.120498      0.822972
   H      0.574272      0.037082     -0.846988
  Br      0.000000      0.000000      3.880000
