    6
 0024.xyz Energy -0.149033
   H      0.403043      0.824500     -0.454225
   N     -0.000002     -0.000004      0.000002
   H      0.731880     -0.701004      0.146396
   H     -0.400229      0.269354      0.903226
   H     -0.734664     -0.392788     -0.595431
  Br      0.000000      0.000000      3.860000
