    6
 0025.xyz Energy -0.148718
   H     -0.773972      0.664441      0.089722
   N      0.000004     -0.000004     -0.000000
   H     -0.372923     -0.951194     -0.068150
   H      0.539535      0.216312     -0.843008
   H      0.607301      0.070491      0.821443
  Br      0.000000      0.000000      3.820000
