    6
 0027.xyz Energy -0.156368
   H      0.378277     -0.914567      0.262752
   N     -0.000002      0.000005     -0.000001
   H      0.307826      0.237301     -0.947321
   H     -1.023069     -0.032892      0.028265
   H      0.336995      0.710088      0.656324
  Br      0.000000      0.000000      3.560000
