    6
 0029.xyz Energy -0.141445
   H     -0.197362     -0.173586      0.989687
   N      0.000001      0.000001     -0.000005
   H     -0.370234      0.916827     -0.266162
   H      1.012144     -0.017294     -0.154329
   H     -0.444562     -0.725960     -0.569121
  Br      0.000000      0.000000      4.100000
