    6
 0040.xyz Energy -0.187987
   H     -0.207000      1.099000     -0.038000
   N     -0.157000      0.086000      0.045000
   H     -1.059000     -0.381000     -0.025000
   H      0.575000     -0.341000     -0.520000
   H      0.151000     -0.082000      1.047000
  Br      0.676120     -0.369040      2.759640
