    5
 0000.xyz Energy -0.183143
   O     -0.407930     -1.083034      0.077737
   O      0.619544      0.964161      0.178840
   C     -0.207067      0.116327     -0.251067
   H     -0.891634      0.500785     -1.081046
  Li      0.000000      0.000000      2.960000
