    5
 0001.xyz Energy -0.157306
   O      1.073355     -0.412287      0.152781
   O     -1.121984      0.086856     -0.281127
   C      0.047578      0.318444      0.125589
   H      0.204963      1.371131      0.540782
  Li      0.000000      0.000000      3.140000
