    5
 0002.xyz Energy -0.130103
   O     -0.019035     -0.500246     -1.046330
   O     -0.171659      0.214112      1.126993
   C      0.186598      0.279991     -0.078925
   H      0.803461      1.205550     -0.339936
  Li      0.000000      0.000000      4.640000
