    5
 0003.xyz Energy -0.123005
   O     -0.128072      0.533246      1.022086
   O      0.420631     -0.335455     -1.027601
   C     -0.286276     -0.193546      0.005390
   H     -1.232670     -0.833329      0.023305
  Li      0.000000      0.000000      4.740000
