    5
 0004.xyz Energy -0.120364
   O      0.799686     -0.249480      0.802294
   O     -0.876527      0.503310     -0.569037
   C      0.075186     -0.248378     -0.228251
   H      0.323812     -1.069498     -0.982739
  Li      0.000000      0.000000      4.740000
