    5
 0005.xyz Energy -0.151236
   O      0.293062      0.224459     -1.099612
   O      0.056622     -0.197860      1.141521
   C     -0.342176     -0.026029     -0.041002
   H     -1.473328     -0.112056     -0.176652
  Li      0.000000      0.000000      4.160000
