    5
 0006.xyz Energy -0.141127
   O      0.099433     -0.374782      1.093190
   O     -0.059722      0.029868     -1.158000
   C     -0.038859      0.337508      0.063412
   H     -0.167311      1.453223      0.273144
  Li      0.000000      0.000000      4.340000
