    5
 0007.xyz Energy -0.133976
   O      0.397328     -0.766273     -0.774835
   O     -0.064368      0.881649      0.750983
   C     -0.325812     -0.112893      0.023344
   H     -1.402856     -0.486172      0.100442
  Li      0.000000      0.000000      4.160000
