    5
 0008.xyz Energy -0.125352
   O      0.776026      0.605241      0.613906
   O     -0.666697     -0.385108     -0.867542
   C     -0.106985     -0.215409      0.248186
   H     -0.460588     -0.927459      1.068707
  Li      0.000000      0.000000      4.320000
