    5
 0009.xyz Energy -0.111747
   O      0.161630      0.866780     -0.753645
   O     -0.068466     -1.057593      0.471415
   C     -0.091164      0.186710      0.276173
   H     -0.392522      0.804025      1.189087
  Li      0.000000      0.000000      4.720000
