    5
 0010.xyz Energy -0.153753
   O     -0.496562     -0.368373      0.981398
   O      0.293078      0.649392     -0.915325
   C      0.199116     -0.274982     -0.064660
   H      0.857316     -1.184062     -0.278322
  Li      0.000000      0.000000      3.940000
