    5
 0011.xyz Energy -0.139649
   O      0.315711     -0.349176     -1.060102
   O     -0.146914      0.052064      1.149404
   C     -0.165173      0.290733     -0.087378
   H     -0.711181      1.251819     -0.376335
  Li      0.000000      0.000000      4.420000
