    5
 0012.xyz Energy -0.134465
   O      0.697376     -0.224740     -0.899206
   O     -0.909704      0.007028      0.719592
   C      0.207764      0.213037      0.175762
   H      0.894665      0.917282      0.756720
  Li      0.000000      0.000000      4.120000
