    5
 0013.xyz Energy -0.121764
   O      0.067673     -0.164152     -1.146250
   O      0.009340     -0.180539      1.145750
   C     -0.075359      0.337289      0.000496
   H     -0.324477      1.452297      0.002027
  Li      0.000000      0.000000      4.900000
