    5
 0014.xyz Energy -0.116319
   O     -0.613073      0.239433     -0.955106
   O      0.780210      0.055670      0.856503
   C     -0.163544     -0.288766      0.096491
   H     -0.704252     -1.243359      0.415385
  Li      0.000000      0.000000      4.800000
