    5
 0015.xyz Energy -0.152204
   O      0.313901      0.177747      1.102400
   O     -0.365967      0.171257     -1.087273
   C      0.050946     -0.341509     -0.014808
   H      0.219394     -1.470466     -0.063659
  Li      0.000000      0.000000      4.100000
