    5
 0016.xyz Energy -0.141472
   O      0.443894     -0.034054      1.071080
   O     -0.225000      0.310217     -1.094790
   C     -0.214195     -0.270232      0.023194
   H     -0.922249     -1.163580      0.099971
  Li      0.000000      0.000000      4.300000
