    5
 0017.xyz Energy -0.125351
   O     -1.086769      0.366221      0.173866
   O      1.070867     -0.122148     -0.428657
   C      0.015566     -0.238833      0.249318
   H      0.066924     -1.028344      1.073540
  Li      0.000000      0.000000      4.080000
