    5
 0018.xyz Energy -0.12143
   O      0.314550     -0.283019     -1.079987
   O      0.031200      0.236542      1.135120
   C     -0.338326      0.045480     -0.053943
   H     -1.456750      0.195805     -0.232371
  Li      0.000000      0.000000      4.900000
