    5
 0019.xyz Energy -0.114264
   O     -0.006286     -0.234299      1.135992
   O      0.166714     -0.080221     -1.145074
   C     -0.156983      0.307767      0.008880
   H     -0.675945      1.325174      0.038344
  Li      0.000000      0.000000      5.140000
