    5
 0020.xyz Energy -0.137191
   O      0.855246     -0.698336      0.355379
   O     -0.672350      0.679557     -0.656940
   C     -0.178973      0.018380      0.295083
   H     -0.770548      0.079074      1.270614
  Li      0.000000      0.000000      3.880000
