    5
 0021.xyz Energy -0.143337
   O      0.193272      0.639003      0.948543
   O      0.115626     -0.779712     -0.850942
   C     -0.302265      0.137684     -0.095510
   H     -1.301486      0.592904     -0.411164
  Li      0.000000      0.000000      4.140000
