    5
 0022.xyz Energy -0.135642
   O     -0.719428     -0.583152     -0.698405
   O      0.602552      0.343273      0.929795
   C      0.114370      0.234731     -0.226416
   H      0.492391      1.010659     -0.974976
  Li      0.000000      0.000000      4.380000
