    5
 0023.xyz Energy -0.121937
   O      0.323043     -0.118837      1.107671
   O     -0.478926     -0.190584     -1.039101
   C      0.152534      0.302776     -0.067103
   H      0.656817      1.303697     -0.288833
  Li      0.000000      0.000000      4.860000
