    5
 0024.xyz Energy -0.113772
   O     -0.199514      0.093977      1.138761
   O      0.038696      0.220475     -1.138120
   C      0.157366     -0.307699     -0.000633
   H      0.677573     -1.324895     -0.002621
  Li      0.000000      0.000000      5.160000
