    5
 0025.xyz Energy -0.154518
   O      0.664709     -0.392940     -0.865548
   O     -0.484915      0.146445      1.043473
   C     -0.175936      0.241204     -0.174098
   H     -0.757492      1.038548     -0.749721
  Li      0.000000      0.000000      4.020000
