    5
 0026.xyz Energy -0.142593
   O      0.424759      0.338478      1.024903
   O     -0.337786     -0.655367     -0.895443
   C     -0.085108      0.310081     -0.126685
   H     -0.366421      1.335194     -0.545390
  Li      0.000000      0.000000      4.240000
