    5
 0027.xyz Energy -0.136732
   O      1.086821     -0.331104     -0.233673
   O     -1.157908      0.031512      0.060657
   C      0.069554      0.293159      0.169302
   H      0.299590      1.262265      0.728965
  Li      0.000000      0.000000      3.640000
