    5
 0028.xyz Energy -0.137073
   O     -0.876255     -0.751047     -0.116273
   O      1.025428      0.470180      0.269910
   C     -0.145964      0.274839     -0.150337
   H     -0.628581      1.183342     -0.647337
  Li      0.000000      0.000000      3.860000
