    5
 0029.xyz Energy -0.116839
   O     -0.031683     -0.604975      0.989149
   O      0.301481      0.760378     -0.822410
   C     -0.264004     -0.152062     -0.163163
   H     -1.136761     -0.654811     -0.702462
  Li      0.000000      0.000000      4.960000
