    5
 0030.xyz Energy -0.153019
   O     -0.115131      0.542861     -1.018558
   O     -0.224666     -0.450251      1.045095
   C      0.332500     -0.090624     -0.025961
   H      1.431682     -0.390164     -0.111880
  Li      0.000000      0.000000      4.020000
