    5
 0031.xyz Energy -0.154091
   O      0.858724     -0.506755      0.592627
   O     -1.051097      0.355582     -0.337907
   C      0.188236      0.147928     -0.249253
   H      0.810597      0.636909     -1.073190
  Li      0.000000      0.000000      3.700000
