    5
 0032.xyz Energy -0.13066
   O     -0.120234      0.398268     -1.082746
   O      0.381887     -0.161034      1.083353
   C     -0.256033     -0.232141     -0.000587
   H     -1.102450     -0.999528     -0.002631
  Li      0.000000      0.000000      4.580000
