    5
 0033.xyz Energy -0.127797
   O     -0.784591      0.568135     -0.638007
   O      0.511958     -0.583296      0.862026
   C      0.266782      0.014832     -0.219204
   H      1.148649      0.063918     -0.943916
  Li      0.000000      0.000000      4.540000
