    5
 0034.xyz Energy -0.114218
   O     -0.030840      0.326086      1.112713
   O      0.355274     -0.188713     -1.087930
   C     -0.317466     -0.134424     -0.024257
   H     -1.366962     -0.578779     -0.104344
  Li      0.000000      0.000000      5.120000
