    5
 0035.xyz Energy -0.151867
   O     -0.064125      1.157629     -0.034588
   O     -0.278045     -1.125137     -0.046696
   C      0.334821     -0.031801      0.079538
   H      1.441683     -0.136820      0.342474
  Li      0.000000      0.000000      3.240000
