    5
 0036.xyz Energy -0.14001
   O      0.088620      0.298236     -1.117415
   O     -0.035490      0.048525      1.158365
   C     -0.051989     -0.339315     -0.040064
   H     -0.223850     -1.461011     -0.172616
  Li      0.000000      0.000000      4.420000
