    5
 0037.xyz Energy -0.139921
   O      0.270750      1.062546     -0.378292
   O     -0.554515     -0.889174      0.497299
   C      0.277669     -0.169654     -0.116449
   H      1.195625     -0.730404     -0.501445
  Li      0.000000      0.000000      3.860000
