    5
 0038.xyz Energy -0.129336
   O      1.014799     -0.017972     -0.561493
   O     -0.800738     -0.027313      0.838747
   C     -0.209470      0.044312     -0.271297
   H     -0.901848      0.190799     -1.168214
  Li      0.000000      0.000000      4.520000
