    5
 0039.xyz Energy -0.113671
   O     -0.094746     -0.018748      1.155892
   O     -0.242429      0.120108     -1.127930
   C      0.329934     -0.099183     -0.027368
   H      1.420637     -0.427067     -0.117733
  Li      0.000000      0.000000      5.180000
