    5
 0046.xyz Energy -0.273959
   O     -0.594000     -0.901000      0.520000
   O      0.332000      1.042000      0.595000
   C     -0.293000      0.172000     -0.074000
   H     -0.567000      0.344000     -1.137000
  Li      0.235000     -0.159000      1.980000
