    2
 0000.xyz Energy 0.0120341
  Br     16.444000      9.928000      0.102000
  Br    -23.778000     -7.836000      0.000000
