    2
 0001.xyz Energy 0.115258
  Br    -21.075000     -5.185000      0.218000
  Br    -24.048300     -8.101100     -0.021800
