    2
 0002.xyz Energy 0.109608
  Br    -21.075000     -5.185000      0.218000
  Br    -24.246888     -8.295867     -0.037816
