    2
 0004.xyz Energy 0.104894
  Br    -21.075000     -5.185000      0.218000
  Br    -24.428927     -8.474404     -0.052498
