    2
 0005.xyz Energy 0.105308
  Br    -21.075000     -5.185000      0.218000
  Br    -24.412378     -8.458173     -0.051163
