    2
 0007.xyz Energy 0.111888
  Br    -21.075000     -5.185000      0.218000
  Br    -24.164143     -8.214714     -0.031143
