    2
 0010.xyz Energy 0.155845
  Br    -21.075000     -5.185000      0.218000
  Br    -23.253949     -7.322031      0.042265
