    2
 0011.xyz Energy 0.240122
  Br    -21.075000     -5.185000      0.218000
  Br    -22.807127     -6.883804      0.078302
