    2
 0013.xyz Energy 11.0199
  Br    -21.075000     -5.185000      0.218000
  Br    -21.698345     -5.796353      0.167727
