    2
 0016.xyz Energy 0.303108
  Br    -21.075000     -5.185000      0.218000
  Br    -19.497331     -3.637682      0.345241
