    2
 0018.xyz Energy 0.103669
  Br    -21.075000     -5.185000      0.218000
  Br    -17.671427     -1.846904      0.492502
