    2
 0020.xyz Energy 0.0674358
  Br    -21.075000     -5.185000      0.218000
  Br    -15.558673      0.225204      0.662898
