    2
 0021.xyz Energy 0.0560392
  Br    -21.075000     -5.185000      0.218000
  Br    -14.394729      1.366757      0.756771
