    2
 0022.xyz Energy 0.0474361
  Br    -21.075000     -5.185000      0.218000
  Br    -13.159071      2.578643      0.856429
