    2
 0025.xyz Energy 0.0312539
  Br    -21.075000     -5.185000      0.218000
  Br     -9.021827      6.636296      1.190102
