    2
 0026.xyz Energy 0.0277592
  Br    -21.075000     -5.185000      0.218000
  Br     -7.499320      8.129512      1.312894
