    2
 0029.xyz Energy 0.0203004
  Br    -21.075000     -5.185000      0.218000
  Br     -2.501529     13.031157      1.715971
