    2
 0031.xyz Energy 0.0169379
  Br    -21.075000     -5.185000      0.218000
  Br      1.188894     16.650584      2.013608
