    2
 0033.xyz Energy 0.0143718
  Br    -21.075000     -5.185000      0.218000
  Br      5.166165     20.551341      2.334380
