    2
 0034.xyz Energy 0.013309
  Br    -21.075000     -5.185000      0.218000
  Br      7.262369     22.607218      2.503441
