    2
 0035.xyz Energy 0.0123634
  Br    -21.075000     -5.185000      0.218000
  Br      9.430286     24.733429      2.678286
