    2
 0039.xyz Energy 0.00945413
  Br    -21.075000     -5.185000      0.218000
  Br     18.819073     33.941596      3.435502
