    2
 0040.xyz Energy 0.00889111
  Br    -21.075000     -5.185000      0.218000
  Br     21.345551     36.419469      3.639265
