    2
 0042.xyz Energy 0.00790899
  Br    -21.075000     -5.185000      0.218000
  Br     26.613643     41.586214      4.064143
