    2
 0043.xyz Energy 0.00747904
  Br    -21.075000     -5.185000      0.218000
  Br     29.355257     44.275086      4.285257
