    2
 0044.xyz Energy 0.00708388
  Br    -21.075000     -5.185000      0.218000
  Br     32.168584     47.034290      4.512155
