    2
 0045.xyz Energy 0.00671978
  Br    -21.075000     -5.185000      0.218000
  Br     35.053622     49.863827      4.744837
