    2
 0046.xyz Energy 0.00638352
  Br    -21.075000     -5.185000      0.218000
  Br     38.010373     52.763696      4.983302
