    2
 0050.xyz Energy 0.00526563
  Br    -21.075000     -5.185000      0.218000
  Br     50.554500     65.066500      5.995000
