    2
 0188.xyz Energy 0.0738609
  Br    -21.075000     -5.185000      0.218000
  Br    -16.064439     -0.270831      0.622107
