    2
 0189.xyz Energy 0.0621375
  Br    -21.075000     -5.185000      0.218000
  Br    -15.068333      0.706111      0.702444
