    2
 0191.xyz Energy 0.0460128
  Br    -21.075000     -5.185000      0.218000
  Br    -12.910939      2.822002      0.876441
