    2
 0192.xyz Energy 0.0403372
  Br    -21.075000     -5.185000      0.218000
  Br    -11.749650      3.960950      0.970100
