    2
 0193.xyz Energy 0.0357129
  Br    -21.075000     -5.185000      0.218000
  Br    -10.533300      5.153900      1.068200
