    2
 0197.xyz Energy 0.0236234
  Br    -21.075000     -5.185000      0.218000
  Br     -5.117289     10.465719      1.505007
