    2
 0198.xyz Energy 0.0216067
  Br    -21.075000     -5.185000      0.218000
  Br     -3.625633     11.928678      1.625311
