    2
 0202.xyz Energy 0.0157351
  Br    -21.075000     -5.185000      0.218000
  Br      2.891600     18.320533      2.150933
