    2
 0203.xyz Energy 0.0146551
  Br    -21.075000     -5.185000      0.218000
  Br      4.658561     20.053502      2.293441
