    2
 0204.xyz Energy 0.0136864
  Br    -21.075000     -5.185000      0.218000
  Br      6.480583     21.840472      2.440389
