    2
 0206.xyz Energy 0.0120246
  Br    -21.075000     -5.185000      0.218000
  Br     10.289811     25.576419      2.747607
