    2
 0209.xyz Energy 0.0100599
  Br    -21.075000     -5.185000      0.218000
  Br     16.416611     31.585352      3.241741
