    2
 0210.xyz Energy 0.00951376
  Br    -21.075000     -5.185000      0.218000
  Br     18.569000     33.696333      3.415333
