    2
 0211.xyz Energy 0.009012
  Br    -21.075000     -5.185000      0.218000
  Br     20.776450     35.861317      3.593367
