    2
 0212.xyz Energy 0.00854983
  Br    -21.075000     -5.185000      0.218000
  Br     23.038961     38.080302      3.775841
