    2
 0215.xyz Energy 0.00736203
  Br    -21.075000     -5.185000      0.218000
  Br     30.156861     45.061269      4.349907
