    2
 0216.xyz Energy 0.00702176
  Br    -21.075000     -5.185000      0.218000
  Br     32.639617     47.496261      4.550144
