    2
 0217.xyz Energy 0.00670499
  Br    -21.075000     -5.185000      0.218000
  Br     35.177433     49.985256      4.754822
