    2
 0218.xyz Energy 0.00640956
  Br    -21.075000     -5.185000      0.218000
  Br     37.770311     52.528252      4.963941
