    2
 0219.xyz Energy 0.00613357
  Br    -21.075000     -5.185000      0.218000
  Br     40.418250     55.125250      5.177500
