    2
 0220.xyz Energy 0.00587532
  Br    -21.075000     -5.185000      0.218000
  Br     43.121250     57.776250      5.395500
