    2
 0001.xyz Energy -0.170692
   K      0.000000      0.000000     -1.278000
  Cl      0.000000      0.000000      1.907516
