    2
 0002.xyz Energy -0.16446
   K      0.000000      0.000000     -1.278000
  Cl      0.000000      0.000000      2.063947
