    2
 0005.xyz Energy -0.159198
   K      0.000000      0.000000     -1.278000
  Cl      0.000000      0.000000      2.191937
