    2
 0006.xyz Energy -0.162127
   K      0.000000      0.000000     -1.278000
  Cl      0.000000      0.000000      2.120832
