    2
 0008.xyz Energy -0.174355
   K      0.000000      0.000000     -1.278000
  Cl      0.000000      0.000000      1.807968
