    2
 0009.xyz Energy -0.18093
   K      0.000000      0.000000     -1.278000
  Cl      0.000000      0.000000      1.566211
