    2
 0010.xyz Energy -0.177938
   K      0.000000      0.000000     -1.278000
  Cl      0.000000      0.000000      1.267568
