    2
 0027.xyz Energy -0.168473
   K      0.000000      0.000000     -1.278000
  Cl      0.000000      0.000000      1.964400
