    2
 0028.xyz Energy -0.151948
   K      0.000000      0.000000     -1.278000
  Cl      0.000000      0.000000      2.369700
