    2
 0073.xyz Energy 1.57433
   K      0.000000      0.000000     -1.278000
  Cl      0.000000      0.000000     -0.062100
