    2
 0074.xyz Energy 148.343
   K      0.000000      0.000000     -1.278000
  Cl      0.000000      0.000000     -1.007800
