    2
 0075.xyz Energy 8.22997
   K      0.000000      0.000000     -1.278000
  Cl      0.000000      0.000000     -2.088600
