    2
 0076.xyz Energy -0.0659086
   K      0.000000      0.000000     -1.278000
  Cl      0.000000      0.000000     -3.304500
