    2
 0079.xyz Energy -0.0826019
   K      0.000000      0.000000     -1.278000
  Cl      0.000000      0.000000     -7.762800
