    2
 0085.xyz Energy -0.0277896
   K      0.000000      0.000000     -1.278000
  Cl      0.000000      0.000000    -20.327100
