    2
 0088.xyz Energy -0.0194896
   K      0.000000      0.000000     -1.278000
  Cl      0.000000      0.000000    -28.433100
