    2
 0090.xyz Energy -0.0159235
   K      0.000000      0.000000     -1.278000
  Cl      0.000000      0.000000    -34.512600
