    2
 0091.xyz Energy -0.0145079
   K      0.000000      0.000000     -1.278000
  Cl      0.000000      0.000000    -37.755000
