    2
 0093.xyz Energy -0.0122026
   K      0.000000      0.000000     -1.278000
  Cl      0.000000      0.000000    -44.645100
