    2
 0094.xyz Energy -0.0112558
   K      0.000000      0.000000     -1.278000
  Cl      0.000000      0.000000    -48.292800
