    2
 0096.xyz Energy -0.00967158
   K      0.000000      0.000000     -1.278000
  Cl      0.000000      0.000000    -55.993500
