    2
 0097.xyz Energy -0.00900455
   K      0.000000      0.000000     -1.278000
  Cl      0.000000      0.000000    -60.046500
