    2
 0098.xyz Energy -0.00840551
   K      0.000000      0.000000     -1.278000
  Cl      0.000000      0.000000    -64.234600
