    2
 0101.xyz Energy -0.00693266
   K      0.000000      0.000000     -1.278000
  Cl      0.000000      0.000000    -77.609500
