    2
 0106.xyz Energy -0.00522259
   K      0.000000      0.000000     -1.278000
  Cl      0.000000      0.000000   -102.603000
