    2
 0112.xyz Energy -0.164697
   K      0.000000      0.000000     -1.278000
  Cl      0.000000      0.000000      2.058143
