    2
 0113.xyz Energy -0.168254
   K      0.000000      0.000000     -1.278000
  Cl      0.000000      0.000000      1.969914
