    2
 0116.xyz Energy -0.178286
   K      0.000000      0.000000     -1.278000
  Cl      0.000000      0.000000      1.275114
