    2
 0120.xyz Energy 18.2023
   K      0.000000      0.000000     -1.278000
  Cl      0.000000      0.000000     -0.654886
