    2
 0123.xyz Energy 0.428771
   K      0.000000      0.000000     -1.278000
  Cl      0.000000      0.000000     -2.855086
