    2
 0124.xyz Energy -0.171993
   K      0.000000      0.000000     -1.278000
  Cl      0.000000      0.000000     -3.731857
