    2
 0126.xyz Energy -0.124512
   K      0.000000      0.000000     -1.278000
  Cl      0.000000      0.000000     -5.700457
