    2
 0127.xyz Energy -0.0981073
   K      0.000000      0.000000     -1.278000
  Cl      0.000000      0.000000     -6.792286
