    2
 0132.xyz Energy -0.0439829
   K      0.000000      0.000000     -1.278000
  Cl      0.000000      0.000000    -13.326714
