    2
 0133.xyz Energy -0.0390332
   K      0.000000      0.000000     -1.278000
  Cl      0.000000      0.000000    -14.848657
