    2
 0134.xyz Energy -0.0349212
   K      0.000000      0.000000     -1.278000
  Cl      0.000000      0.000000    -16.442286
