    2
 0136.xyz Energy -0.0285126
   K      0.000000      0.000000     -1.278000
  Cl      0.000000      0.000000    -19.844600
