    2
 0137.xyz Energy -0.0259791
   K      0.000000      0.000000     -1.278000
  Cl      0.000000      0.000000    -21.653286
