    2
 0138.xyz Energy -0.0237825
   K      0.000000      0.000000     -1.278000
  Cl      0.000000      0.000000    -23.533657
