    2
 0140.xyz Energy -0.0201761
   K      0.000000      0.000000     -1.278000
  Cl      0.000000      0.000000    -27.509457
