    2
 0141.xyz Energy -0.0186831
   K      0.000000      0.000000     -1.278000
  Cl      0.000000      0.000000    -29.604886
