    2
 0142.xyz Energy -0.017355
   K      0.000000      0.000000     -1.278000
  Cl      0.000000      0.000000    -31.772000
