    2
 0143.xyz Energy -0.0161677
   K      0.000000      0.000000     -1.278000
  Cl      0.000000      0.000000    -34.010800
