    2
 0145.xyz Energy -0.0141402
   K      0.000000      0.000000     -1.278000
  Cl      0.000000      0.000000    -38.703457
