    2
 0146.xyz Energy -0.01327
   K      0.000000      0.000000     -1.278000
  Cl      0.000000      0.000000    -41.157314
