    2
 0147.xyz Energy -0.0124796
   K      0.000000      0.000000     -1.278000
  Cl      0.000000      0.000000    -43.682857
