    2
 0151.xyz Energy -0.00994264
   K      0.000000      0.000000     -1.278000
  Cl      0.000000      0.000000    -54.501886
