    2
 0153.xyz Energy -0.00895957
   K      0.000000      0.000000     -1.278000
  Cl      0.000000      0.000000    -60.341514
