    2
 0154.xyz Energy -0.00852272
   K      0.000000      0.000000     -1.278000
  Cl      0.000000      0.000000    -63.368857
