    2
 0156.xyz Energy -0.00774103
   K      0.000000      0.000000     -1.278000
  Cl      0.000000      0.000000    -69.638600
