    2
 0000.xyz Energy -0.237792
  Li      0.000000      0.000000     -1.682000
  Cl      0.000000      0.000000      0.540000
