    2
 0002.xyz Energy -0.223012
  Li      0.000000      0.000000     -1.682000
  Cl      0.000000      0.000000      0.816421
