    2
 0003.xyz Energy -0.218303
  Li      0.000000      0.000000     -1.682000
  Cl      0.000000      0.000000      0.890842
