    2
 0006.xyz Energy -0.220339
  Li      0.000000      0.000000     -1.682000
  Cl      0.000000      0.000000      0.858947
