    2
 0008.xyz Energy -0.233955
  Li      0.000000      0.000000     -1.682000
  Cl      0.000000      0.000000      0.625053
