    2
 0009.xyz Energy -0.240784
  Li      0.000000      0.000000     -1.682000
  Cl      0.000000      0.000000      0.444316
