    2
 0012.xyz Energy 0.00477163
  Li      0.000000      0.000000     -1.682000
  Cl      0.000000      0.000000     -0.353053
