    2
 0018.xyz Energy -0.0770901
  Li      0.000000      0.000000     -1.682000
  Cl      0.000000      0.000000     -3.096000
