    2
 0019.xyz Energy -0.241636
  Li      0.000000      0.000000     -1.682000
  Cl      0.000000      0.000000     -3.702000
