    2
 0030.xyz Energy -0.19531
  Li      0.000000      0.000000     -1.682000
  Cl      0.000000      0.000000      1.247000
