    2
 0031.xyz Energy -0.189045
  Li      0.000000      0.000000     -1.682000
  Cl      0.000000      0.000000      1.348000
