    2
 0065.xyz Energy 48.1532
  Li      0.000000      0.000000     -1.682000
  Cl      0.000000      0.000000     -1.480000
