    2
 0066.xyz Energy 3.63245
  Li      0.000000      0.000000     -1.682000
  Cl      0.000000      0.000000     -2.288000
