    2
 0069.xyz Energy -0.156255
  Li      0.000000      0.000000     -1.682000
  Cl      0.000000      0.000000     -5.318000
