    2
 0070.xyz Energy -0.113331
  Li      0.000000      0.000000     -1.682000
  Cl      0.000000      0.000000     -6.530000
