    2
 0074.xyz Energy -0.0495202
  Li      0.000000      0.000000     -1.682000
  Cl      0.000000      0.000000    -12.388000
