    2
 0075.xyz Energy -0.0426446
  Li      0.000000      0.000000     -1.682000
  Cl      0.000000      0.000000    -14.105000
