    2
 0076.xyz Energy -0.0371859
  Li      0.000000      0.000000     -1.682000
  Cl      0.000000      0.000000    -15.923000
