    2
 0080.xyz Energy -0.0234992
  Li      0.000000      0.000000     -1.682000
  Cl      0.000000      0.000000    -24.205000
