    2
 0081.xyz Energy -0.0544849
  Li      0.000000      0.000000     -1.682000
  Cl      0.000000      0.000000    -26.528000
