    2
 0084.xyz Energy -0.0733635
  Li      0.000000      0.000000     -1.682000
  Cl      0.000000      0.000000    -34.103000
