    2
 0102.xyz Energy -0.222512
  Li      0.000000      0.000000     -1.682000
  Cl      0.000000      0.000000      0.824449
