    2
 0103.xyz Energy -0.223282
  Li      0.000000      0.000000     -1.682000
  Cl      0.000000      0.000000      0.812082
