    2
 0104.xyz Energy -0.227287
  Li      0.000000      0.000000     -1.682000
  Cl      0.000000      0.000000      0.746122
