    2
 0106.xyz Energy -0.240576
  Li      0.000000      0.000000     -1.682000
  Cl      0.000000      0.000000      0.453429
