    2
 0107.xyz Energy -0.23827
  Li      0.000000      0.000000     -1.682000
  Cl      0.000000      0.000000      0.226694
