    2
 0108.xyz Energy -0.191826
  Li      0.000000      0.000000     -1.682000
  Cl      0.000000      0.000000     -0.053633
