    2
 0109.xyz Energy 0.0463647
  Li      0.000000      0.000000     -1.682000
  Cl      0.000000      0.000000     -0.387551
