    2
 0110.xyz Energy 1.04405
  Li      0.000000      0.000000     -1.682000
  Cl      0.000000      0.000000     -0.775061
