    2
 0114.xyz Energy 0.230318
  Li      0.000000      0.000000     -1.682000
  Cl      0.000000      0.000000     -2.861020
