    2
 0115.xyz Energy -0.232504
  Li      0.000000      0.000000     -1.682000
  Cl      0.000000      0.000000     -3.516490
