    2
 0117.xyz Energy -0.173028
  Li      0.000000      0.000000     -1.682000
  Cl      0.000000      0.000000     -4.988204
