    2
 0118.xyz Energy -0.135923
  Li      0.000000      0.000000     -1.682000
  Cl      0.000000      0.000000     -5.804449
