    2
 0120.xyz Energy -0.0911181
  Li      0.000000      0.000000     -1.682000
  Cl      0.000000      0.000000     -7.597714
