    2
 0122.xyz Energy -0.0671504
  Li      0.000000      0.000000     -1.682000
  Cl      0.000000      0.000000     -9.605347
