    2
 0124.xyz Energy -0.0522747
  Li      0.000000      0.000000     -1.682000
  Cl      0.000000      0.000000    -11.827347
