    2
 0125.xyz Energy -0.0467613
  Li      0.000000      0.000000     -1.682000
  Cl      0.000000      0.000000    -13.018735
