    2
 0126.xyz Energy -0.0421047
  Li      0.000000      0.000000     -1.682000
  Cl      0.000000      0.000000    -14.263714
