    2
 0128.xyz Energy -0.0347608
  Li      0.000000      0.000000     -1.682000
  Cl      0.000000      0.000000    -16.914449
