    2
 0130.xyz Energy -0.0292506
  Li      0.000000      0.000000     -1.682000
  Cl      0.000000      0.000000    -19.779551
