    2
 0131.xyz Energy -0.0269918
  Li      0.000000      0.000000     -1.682000
  Cl      0.000000      0.000000    -21.292490
