    2
 0132.xyz Energy -0.0249937
  Li      0.000000      0.000000     -1.682000
  Cl      0.000000      0.000000    -22.859020
