    2
 0133.xyz Energy -0.237792
  Li      0.000000      0.000000     -1.682000
  Cl      0.000000      0.000000     -3.904000
