    2
 0134.xyz Energy -0.177158
  Li      0.000000      0.000000     -1.682000
  Cl      0.000000      0.000000     -4.914000
