    2
 0135.xyz Energy -0.128199
  Li      0.000000      0.000000     -1.682000
  Cl      0.000000      0.000000     -6.025000
