    2
 0136.xyz Energy -0.0975313
  Li      0.000000      0.000000     -1.682000
  Cl      0.000000      0.000000     -7.237000
