    2
 0137.xyz Energy -0.0664935
  Li      0.000000      0.000000     -1.682000
  Cl      0.000000      0.000000    -31.495551
