    2
 0140.xyz Energy -0.0464586
  Li      0.000000      0.000000     -1.682000
  Cl      0.000000      0.000000    -13.095000
