    2
 0142.xyz Energy -0.0354235
  Li      0.000000      0.000000     -1.682000
  Cl      0.000000      0.000000    -16.630000
