    2
 0144.xyz Energy -0.0280267
  Li      0.000000      0.000000     -1.682000
  Cl      0.000000      0.000000    -20.569000
