    2
 0000.xyz Energy 0.00702541
  Li    -34.910000     25.181000     -0.000000
  Na     26.259000    -18.773000      0.000000
