    2
 0005.xyz Energy 0.158283
  Li      0.064000      0.046000      0.000000
  Na      2.784031      1.982000      0.000000
