    2
 0007.xyz Energy 0.170932
  Li      0.064000      0.046000      0.000000
  Na      2.581714      1.838000      0.000000
