    2
 0008.xyz Energy 0.184691
  Li      0.064000      0.046000      0.000000
  Na      2.392886      1.703600      0.000000
