    2
 0010.xyz Energy 0.241494
  Li      0.064000      0.046000      0.000000
  Na      1.839888      1.310000      0.000000
