    2
 0011.xyz Energy 0.304703
  Li      0.064000      0.046000      0.000000
  Na      1.475718      1.050800      0.000000
