    2
 0012.xyz Energy 0.500412
  Li      0.064000      0.046000      0.000000
  Na      1.053102      0.750000      0.000000
