    2
 0014.xyz Energy 0.0910032
  Li      0.064000      0.046000      0.000000
  Na     -4.672450     -3.325200      0.000000
