    2
 0016.xyz Energy 0.338165
  Li      0.064000      0.046000      0.000000
  Na     -1.221833     -0.869200      0.000000
