    2
 0018.xyz Energy 0.155219
  Li      0.064000      0.046000      0.000000
  Na     -2.709982     -1.928400      0.000000
