    2
 0020.xyz Energy 0.0958683
  Li      0.064000      0.046000      0.000000
  Na     -4.431918     -3.154000      0.000000
