    2
 0021.xyz Energy 0.0791739
  Li      0.064000      0.046000      0.000000
  Na     -5.380557     -3.829200      0.000000
