    2
 0022.xyz Energy 0.066819
  Li      0.064000      0.046000      0.000000
  Na     -6.387643     -4.546000      0.000000
