    2
 0024.xyz Energy 0.0880476
  Li      0.064000      0.046000      0.000000
  Na     -4.831556     -3.438444      0.000000
