    2
 0025.xyz Energy 0.0749402
  Li      0.064000      0.046000      0.000000
  Na     -5.688278     -4.048222      0.000000
