    2
 0027.xyz Energy 0.0567218
  Li      0.064000      0.046000      0.000000
  Na     -7.536350     -5.363600      0.000000
