    2
 0030.xyz Energy 0.0402574
  Li      0.064000      0.046000      0.000000
  Na    -10.645028     -7.576222      0.000000
