    2
 0031.xyz Energy 0.0364275
  Li      0.064000      0.046000      0.000000
  Na    -11.771006     -8.377644      0.000000
