    2
 0033.xyz Energy 0.0303145
  Li      0.064000      0.046000      0.000000
  Na    -14.157589    -10.076311      0.000000
