    2
 0035.xyz Energy 0.0256809
  Li      0.064000      0.046000      0.000000
  Na    -16.723676    -11.902741      0.000000
