    2
 0036.xyz Energy 0.023769
  Li      0.064000      0.046000      0.000000
  Na    -18.074033    -12.863867      0.000000
