    2
 0038.xyz Energy 0.0205557
  Li      0.064000      0.046000      0.000000
  Na    -20.909376    -14.881941      0.000000
