    2
 0039.xyz Energy 0.0191966
  Li      0.064000      0.046000      0.000000
  Na    -22.394361    -15.938889      0.000000
