    2
 0040.xyz Energy 0.0179723
  Li      0.064000      0.046000      0.000000
  Na    -23.924222    -17.027778      0.000000
