    2
 0041.xyz Energy 0.0168652
  Li      0.064000      0.046000      0.000000
  Na    -25.498959    -18.148607      0.000000
