    2
 0043.xyz Energy 0.0149452
  Li      0.064000      0.046000      0.000000
  Na    -28.783061    -20.486089      0.000000
