    2
 0045.xyz Energy 0.0133431
  Li      0.064000      0.046000      0.000000
  Na    -32.246667    -22.951333      0.000000
