    2
 0049.xyz Energy 0.0108387
  Li      0.064000      0.046000      0.000000
  Na    -39.712389    -28.265111      0.000000
