    2
 0050.xyz Energy 0.0103251
  Li      0.064000      0.046000      0.000000
  Na    -41.691009    -29.673407      0.000000
