    2
 0052.xyz Energy 0.00940357
  Li      0.064000      0.046000      0.000000
  Na    -45.782878    -32.585822      0.000000
