    2
 0054.xyz Energy 0.00860214
  Li      0.064000      0.046000      0.000000
  Na    -50.054250    -35.626000      0.000000
