    2
 0056.xyz Energy 0.0498905
  Li      0.064000      0.046000      0.000000
  Na     -8.577155     -6.104400      0.000000
