    2
 0057.xyz Energy 0.0438858
  Li      0.064000      0.046000      0.000000
  Na     -9.759582     -6.946000      0.000000
