    2
 0058.xyz Energy 0.0389643
  Li      0.064000      0.046000      0.000000
  Na    -11.000455     -7.829200      0.000000
