    2
 0059.xyz Energy 0.0348696
  Li      0.064000      0.046000      0.000000
  Na    -12.299776     -8.754000      0.000000
