    2
 0060.xyz Energy 0.0314193
  Li      0.064000      0.046000      0.000000
  Na    -13.657543     -9.720400      0.000000
