    2
 0062.xyz Energy 0.0259518
  Li      0.064000      0.046000      0.000000
  Na    -16.548418    -11.778000      0.000000
