    2
 0064.xyz Energy 0.0218433
  Li      0.064000      0.046000      0.000000
  Na    -19.673082    -14.002000      0.000000
