    2
 0065.xyz Energy 0.0201581
  Li      0.064000      0.046000      0.000000
  Na    -21.323084    -15.176400      0.000000
