    2
 0066.xyz Energy 0.018667
  Li      0.064000      0.046000      0.000000
  Na    -23.031533    -16.392400      0.000000
