    2
 0067.xyz Energy 0.0173404
  Li      0.064000      0.046000      0.000000
  Na    -24.798429    -17.650000      0.000000
