    2
 0068.xyz Energy 0.0161544
  Li      0.064000      0.046000      0.000000
  Na    -26.623771    -18.949200      0.000000
