    2
 0069.xyz Energy 0.0150893
  Li      0.064000      0.046000      0.000000
  Na    -28.507561    -20.290000      0.000000
