    2
 0070.xyz Energy 0.0141288
  Li      0.064000      0.046000      0.000000
  Na    -30.449798    -21.672400      0.000000
