    2
 0073.xyz Energy 0.0117501
  Li      0.064000      0.046000      0.000000
  Na    -36.627190    -26.069200      0.000000
