    2
 0074.xyz Energy 0.0110922
  Li      0.064000      0.046000      0.000000
  Na    -38.803214    -27.618000      0.000000
