    2
 0077.xyz Energy 0.00942431
  Li      0.064000      0.046000      0.000000
  Na    -45.681969    -32.514000      0.000000
