    2
 0078.xyz Energy 0.0089527
  Li      0.064000      0.046000      0.000000
  Na    -48.091782    -34.229200      0.000000
