    2
 0079.xyz Energy 0.0085162
  Li      0.064000      0.046000      0.000000
  Na    -50.560041    -35.986000      0.000000
