    2
 0080.xyz Energy 0.00811135
  Li      0.064000      0.046000      0.000000
  Na    -53.086747    -37.784400      0.000000
