    2
 0002.xyz Energy -0.220317
  Na      0.000000     -0.000000     -0.873000
   F      0.000000      0.000000      1.516817
