    2
 0006.xyz Energy -0.216214
  Na      0.000000     -0.000000     -0.873000
   F      0.000000      0.000000      1.581117
