    2
 0008.xyz Energy -0.22864
  Na      0.000000     -0.000000     -0.873000
   F      0.000000      0.000000      1.377500
