    2
 0013.xyz Energy -0.224931
  Na      0.000000     -0.000000     -0.873000
   F      0.000000      0.000000      1.441800
