    2
 0020.xyz Energy -0.2131
  Na      0.000000     -0.000000     -0.873000
   F      0.000000      0.000000     -2.551944
