    2
 0022.xyz Energy -0.18748
  Na      0.000000     -0.000000     -0.873000
   F      0.000000      0.000000     -3.777217
