    2
 0024.xyz Energy -0.125932
  Na      0.000000     -0.000000     -0.873000
   F      0.000000      0.000000     -5.159667
