    2
 0029.xyz Energy -0.0628781
  Na      0.000000     -0.000000     -0.873000
   F      0.000000      0.000000     -9.303444
