    2
 0030.xyz Energy -0.0564971
  Na      0.000000     -0.000000     -0.873000
   F      0.000000      0.000000    -10.250083
