    2
 0031.xyz Energy -0.0511038
  Na      0.000000     -0.000000     -0.873000
   F      0.000000      0.000000    -11.236017
