    2
 0035.xyz Energy -0.0360073
  Na      0.000000     -0.000000     -0.873000
   F      0.000000      0.000000    -15.572694
