    2
 0039.xyz Energy -0.0269119
  Na      0.000000     -0.000000     -0.873000
   F      0.000000      0.000000    -20.538083
