    2
 0041.xyz Energy -0.0236428
  Na      0.000000     -0.000000     -0.873000
   F      0.000000      0.000000    -23.256544
