    2
 0043.xyz Energy -0.0209508
  Na      0.000000     -0.000000     -0.873000
   F      0.000000      0.000000    -26.132183
