    2
 0049.xyz Energy -0.0151938
  Na      0.000000     -0.000000     -0.873000
   F      0.000000      0.000000    -35.702167
