    2
 0050.xyz Energy -0.0144738
  Na      0.000000     -0.000000     -0.873000
   F      0.000000      0.000000    -37.434694
