    2
 0051.xyz Energy -0.0138048
  Na      0.000000     -0.000000     -0.873000
   F      0.000000      0.000000    -39.206517
