    2
 0053.xyz Energy -0.0126011
  Na      0.000000     -0.000000     -0.873000
   F      0.000000      0.000000    -42.868044
