    2
 0055.xyz Energy -0.0115507
  Na      0.000000     -0.000000     -0.873000
   F      0.000000      0.000000    -46.686750
