    2
 0063.xyz Energy 6.33391
  Na      0.000000     -0.000000     -0.873000
   F      0.000000      0.000000     -1.451700
