    2
 0068.xyz Energy -0.0905546
  Na      0.000000     -0.000000     -0.873000
   F      0.000000      0.000000     -6.756450
