    2
 0070.xyz Energy -0.0610554
  Na      0.000000     -0.000000     -0.873000
   F      0.000000      0.000000     -9.553500
