    2
 0091.xyz Energy -0.00862667
  Na      0.000000     -0.000000     -0.873000
   F      0.000000      0.000000    -62.215200
