    2
 0094.xyz Energy -0.0073154
  Na      0.000000     -0.000000     -0.873000
   F      0.000000      0.000000    -73.210500
