    2
 0100.xyz Energy -0.056808
  Na      0.000000      0.000000      0.000000
   F      0.000000      0.000000      9.326000
