    2
 0101.xyz Energy -0.0281234
  Na      0.000000      0.000000      0.000000
   F      0.000000      0.000000     18.818222
