    2
 0108.xyz Energy -0.00588511
  Na      0.000000      0.000000      0.000000
   F      0.000000      0.000000     89.918000
