    2
 0109.xyz Energy -0.0052529
  Na      0.000000      0.000000      0.000000
   F      0.000000      0.000000    100.740000
