    2
 0112.xyz Energy -0.233404
  Na      0.000000     -0.000000     -0.873000
   F      0.000000      0.000000      0.949708
