    2
 0114.xyz Energy 0.185176
  Na      0.000000     -0.000000     -0.873000
   F      0.000000      0.000000      0.363135
