    2
 0115.xyz Energy 1.78706
  Na      0.000000     -0.000000     -0.873000
   F      0.000000      0.000000     -0.006918
