    2
 0119.xyz Energy 0.49377
  Na      0.000000     -0.000000     -0.873000
   F      0.000000      0.000000     -1.998906
