    2
 0121.xyz Energy -0.21783
  Na      0.000000     -0.000000     -0.873000
   F      0.000000      0.000000     -3.301965
