    2
 0122.xyz Energy -0.172949
  Na      0.000000     -0.000000     -0.873000
   F      0.000000      0.000000     -4.030261
