    2
 0124.xyz Energy -0.112627
  Na      0.000000     -0.000000     -0.873000
   F      0.000000      0.000000     -5.640386
