    2
 0129.xyz Energy -0.0546749
  Na      0.000000     -0.000000     -0.873000
   F      0.000000      0.000000    -10.561304
