    2
 0130.xyz Energy -0.0489127
  Na      0.000000     -0.000000     -0.873000
   F      0.000000      0.000000    -11.699020
