    2
 0133.xyz Energy -0.0363874
  Na      0.000000     -0.000000     -0.873000
   F      0.000000      0.000000    -15.419235
