    2
 0136.xyz Energy -0.0282604
  Na      0.000000     -0.000000     -0.873000
   F      0.000000      0.000000    -19.600047
