    2
 0137.xyz Energy -0.0261693
  Na      0.000000     -0.000000     -0.873000
   F      0.000000      0.000000    -21.096006
