    2
 0138.xyz Energy -0.0243091
  Na      0.000000     -0.000000     -0.873000
   F      0.000000      0.000000    -22.643143
