    2
 0142.xyz Energy -0.0185874
  Na      0.000000     -0.000000     -0.873000
   F      0.000000      0.000000    -29.343465
