    2
 0146.xyz Energy -0.0147038
  Na      0.000000     -0.000000     -0.873000
   F      0.000000      0.000000    -36.862629
