    2
 0149.xyz Energy -0.0125499
  Na      0.000000     -0.000000     -0.873000
   F      0.000000      0.000000    -43.039365
