    2
 0151.xyz Energy -0.0113705
  Na      0.000000     -0.000000     -0.873000
   F      0.000000      0.000000    -47.413078
