    2
 0152.xyz Energy -0.0108431
  Na      0.000000     -0.000000     -0.873000
   F      0.000000      0.000000    -49.676700
