    2
 0153.xyz Energy -0.010352
  Na      0.000000     -0.000000     -0.873000
   F      0.000000      0.000000    -51.991500
