    2
 0604.xyz Energy -0.214058
  Na      0.000000     -0.000000     -0.873000
   F      0.000000      0.000000      1.614395
