    2
 0605.xyz Energy -0.214717
  Na      0.000000     -0.000000     -0.873000
   F      0.000000      0.000000      1.604242
