    2
 0618.xyz Energy -0.00826342
  Na      0.000000     -0.000000     -0.873000
   F      0.000000      0.000000     -2.223300
