    4
 0003.xyz Energy -0.0352117
   O     -0.266000      0.381000      0.000000
   H     -1.231000      0.418000      0.000000
   H      0.032000      1.299000      0.000000
  Li      0.610022     -0.873956      0.000000
