    4
 0007.xyz Energy -0.0297124
   O     -0.266000      0.381000      0.000000
   H     -1.231000      0.418000      0.000000
   H      0.032000      1.299000      0.000000
  Li      1.342259     -1.922815      0.000000
