    4
 0008.xyz Energy -0.0198723
   O     -0.266000      0.381000      0.000000
   H     -1.231000      0.418000      0.000000
   H      0.032000      1.299000      0.000000
  Li      1.666133     -2.386733      0.000000
