    4
 0016.xyz Energy -0.0439996
   O     -0.264000      0.378000      0.000000
   H     -1.225000      0.420000      0.000000
   H      0.027000      1.295000      0.000000
  Li      1.042953     -1.492489      0.000000
