    4
 0050.xyz Energy 1.26788e-05
   O      0.035053     -0.344207     -0.179924
   H      0.648912      0.055070      0.443692
   H     -0.683966      0.289137     -0.263768
  Li      0.000000      0.000000     85.670826
