    4
 0055.xyz Energy 0.000132636
   O      0.145636      0.111028     -0.344301
   H     -0.319354      0.656176      0.297370
   H      0.173718     -0.767204      0.046931
  Li      0.000000      0.000000     36.366866
