    4
 0061.xyz Energy 1.93578e-05
   O      0.145636      0.111028     -0.344301
   H     -0.319354      0.656176      0.297370
   H      0.173718     -0.767204      0.046931
  Li      0.000000      0.000000     95.952200
