    4
 0085.xyz Energy -7.05168e-06
   O      0.267231      0.283704      0.013423
   H     -0.628089      0.306361      0.364184
   H      0.360858     -0.590065     -0.377607
  Li      0.000000      0.000000     36.375294
