    4
 0087.xyz Energy -2.73322e-06
   O      0.267231      0.283704      0.013423
   H     -0.628089      0.306361      0.364184
   H      0.360858     -0.590065     -0.377607
  Li      0.000000      0.000000     55.643294
