    4
 0096.xyz Energy 3.34327e-05
   O      0.071366      0.355684     -0.143093
   H     -0.783084     -0.075157     -0.045968
   H      0.711718     -0.280528      0.189061
  Li      0.000000      0.000000     45.916564
