    4
 0107.xyz Energy 6.10414e-05
   O     -0.002802      0.132414     -0.366796
   H     -0.619977     -0.485021      0.036952
   H      0.622779      0.352607      0.329844
  Li      0.000000      0.000000     55.638753
