    4
 0141.xyz Energy 0.000102807
   O     -0.373866      0.088502     -0.066873
   H     -0.030207     -0.636722      0.463310
   H      0.404073      0.548220     -0.396437
  Li      0.000000      0.000000     17.716640
