    4
 0144.xyz Energy 1.61873e-05
   O     -0.373866      0.088502     -0.066873
   H     -0.030207     -0.636722      0.463310
   H      0.404073      0.548220     -0.396437
  Li      0.000000      0.000000     45.950640
