    4
 0145.xyz Energy 1.1083e-05
   O     -0.373866      0.088502     -0.066873
   H     -0.030207     -0.636722      0.463310
   H      0.404073      0.548220     -0.396437
  Li      0.000000      0.000000     55.658862
