    4
 0153.xyz Energy -7.94489e-05
   O     -0.326669     -0.080909      0.197031
   H     -0.195110      0.610242     -0.458824
   H      0.521779     -0.529333      0.261793
  Li      0.000000      0.000000     36.363065
