    4
 0164.xyz Energy 4.88138e-05
   O      0.119005      0.312135     -0.201221
   H      0.626812     -0.204305      0.431681
   H     -0.745818     -0.107829     -0.230460
  Li      0.000000      0.000000     45.945278
