    4
 0177.xyz Energy 3.53606e-05
   O      0.009888      0.005865     -0.389805
   H      0.011251      0.760323      0.206797
   H     -0.021139     -0.766188      0.183008
  Li      0.000000      0.000000     75.487909
