    4
 0187.xyz Energy -3.00613e-05
   O      0.062465      0.198235      0.329971
   H      0.517406      0.303765     -0.510883
   H     -0.579871     -0.502000      0.180911
  Li      0.000000      0.000000     75.877250
