    4
 0196.xyz Energy 1.41353e-05
   O     -0.342362      0.143502     -0.119481
   H      0.530093      0.526944     -0.249627
   H     -0.187731     -0.670447      0.369108
  Li      0.000000      0.000000     65.500648
