    4
 0200.xyz Energy -0.000433597
   O     -0.362892      0.082026      0.116881
   H      0.371709     -0.221160      0.658713
   H     -0.008817      0.139134     -0.775595
  Li      0.000000      0.000000      8.643364
