    4
 0220.xyz Energy 1.90829e-05
   O      0.160371     -0.235419     -0.266344
   H     -0.191221      0.649286     -0.403540
   H      0.030849     -0.413868      0.669884
  Li      0.000000      0.000000     85.718128
