    4
 0322.xyz Energy 0.00244622
   O     -0.023206     -0.025402     -0.388454
   H      0.361292     -0.665628      0.217693
   H     -0.338085      0.691030      0.170761
  Li      0.000000      0.000000      8.570351
