    4
 0335.xyz Energy -0.000151966
   O     -0.035725     -0.052999      0.384701
   H     -0.451353      0.627549     -0.153119
   H      0.487078     -0.574550     -0.231582
  Li      0.000000      0.000000     36.753987
