    4
 0357.xyz Energy -6.20969e-05
   O     -0.075617     -0.099761      0.369337
   H     -0.569360     -0.350466     -0.417116
   H      0.644977      0.450228      0.047779
  Li      0.000000      0.000000     56.020059
