    4
 0374.xyz Energy 0.000152003
   O      0.313509     -0.068505     -0.221584
   H     -0.178889      0.754003     -0.143043
   H     -0.134620     -0.685498      0.364627
  Li      0.000000      0.000000     26.964022
