    4
 0375.xyz Energy 8.46131e-05
   O      0.313509     -0.068505     -0.221584
   H     -0.178889      0.754003     -0.143043
   H     -0.134620     -0.685498      0.364627
  Li      0.000000      0.000000     36.375355
