    4
 0385.xyz Energy 0.00014729
   O     -0.048640      0.067654     -0.380969
   H     -0.708776      0.139553      0.314871
   H      0.757416     -0.207207      0.066098
  Li      0.000000      0.000000     36.368912
