    4
 0401.xyz Energy 3.5364e-06
   O      0.365688      0.121573     -0.059768
   H      0.053255     -0.479242      0.623277
   H     -0.418944      0.357669     -0.563509
  Li      0.000000      0.000000     96.008886
