    4
 0404.xyz Energy 0.00013198
   O     -0.301392     -0.148998     -0.197592
   H     -0.134964      0.776363      0.005267
   H      0.436357     -0.627365      0.192324
  Li      0.000000      0.000000     26.945691
