    4
 0405.xyz Energy 7.40095e-05
   O     -0.301392     -0.148998     -0.197592
   H     -0.134964      0.776363      0.005267
   H      0.436357     -0.627365      0.192324
  Li      0.000000      0.000000     36.357024
