    4
 0419.xyz Energy -2.42901e-05
   O     -0.277142      0.075353      0.263808
   H      0.167092      0.703359     -0.313607
   H      0.110050     -0.778712      0.049800
  Li      0.000000      0.000000     75.870693
