    4
 0428.xyz Energy -0.0478821
   O     -0.266000      0.382000      0.000000
   H     -1.231000      0.418000      0.000000
   H      0.033000      1.299000      0.000000
  Li      0.966000     -1.385242      0.000000
