    4
 0448.xyz Energy -0.0514442
   O     -0.266000      0.382000      0.000000
   H     -1.231000      0.418000      0.000000
   H      0.033000      1.299000      0.000000
  Li      0.718500     -1.030216      0.000000
