    9
 0006.xyz Energy 0.0954981
   N     -0.083728     -0.080678      0.678127
   C      0.095833      0.092341     -0.776248
   H     -0.497680     -0.996038      0.898345
   H     -0.704168      0.641282      1.067624
   H      0.813899     -0.018984      1.176503
   H     -0.886943      0.016939     -1.245345
   H      0.760225     -0.699571     -1.127274
   H      0.536226      1.077150     -0.943521
  Na      0.000000      0.000000      5.980000
