    9
 0010.xyz Energy 0.0918766
   N     -0.533347     -0.250145     -0.355448
   C      0.610523      0.286344      0.406867
   H     -0.320108     -0.308316     -1.359880
   H     -1.365994      0.344345     -0.249805
   H     -0.785509     -1.195212     -0.037357
   H      0.827740      1.285340      0.024230
   H      1.457696     -0.385149      0.254696
   H      0.322728      0.322996      1.459295
  Na      0.000000      0.000000      5.440000
