    9
 0011.xyz Energy 0.100355
   N      0.620431     -0.235261      0.181914
   C     -0.710203      0.269290     -0.208243
   H      0.974478     -0.922248     -0.496641
   H      0.592032     -0.694991      1.101546
   H      1.308575      0.527109      0.238198
   H     -1.391313     -0.582725     -0.250037
   H     -0.613866      0.743293     -1.186916
   H     -1.028798      0.989953      0.547346
  Na      0.000000      0.000000      5.300000
