    9
 0014.xyz Energy 0.112139
   N     -0.076475     -0.009171     -0.683698
   C      0.087533      0.010487      0.782623
   H     -0.926464     -0.518592     -0.958920
   H      0.721330     -0.466983     -1.143908
   H     -0.149142      0.943143     -1.065453
   H      0.158356     -1.023739      1.124598
   H     -0.786236      0.506286      1.209791
   H      1.001840      0.562365      1.009002
  Na      0.000000      0.000000      4.200000
