    9
 0017.xyz Energy 0.0910216
   N      0.475980     -0.303067     -0.393660
   C     -0.544841      0.346929      0.450621
   H      1.412871      0.079539     -0.210402
   H      0.276700     -0.167923     -1.393612
   H      0.516034     -1.316108     -0.220273
   H     -0.538059      1.414054      0.220870
   H     -0.278338      0.168280      1.494087
   H     -1.511222     -0.100342      0.210142
  Na      0.000000      0.000000      5.480000
