    9
 0021.xyz Energy 0.133882
   N     -0.244204      0.285530      0.576378
   C      0.279530     -0.326855     -0.659773
   H     -0.631452     -0.424687      1.211491
   H     -0.993671      0.959689      0.372199
   H      0.493509      0.788269      1.087213
   H     -0.546697     -0.842115     -1.153171
   H      1.066980     -1.028225     -0.377351
   H      0.673975      0.474063     -1.288039
  Na      0.000000      0.000000      4.260000
