    9
 0022.xyz Energy 0.123251
   N      0.332415      0.072841      0.597971
   C     -0.380500     -0.083379     -0.684499
   H      1.228633      0.561232      0.471465
   H      0.535093     -0.839419      1.027603
   H     -0.223407      0.615668      1.272004
   H      0.257656     -0.664701     -1.352636
   H     -0.565319      0.914199     -1.087539
   H     -1.317940     -0.605655     -0.483980
  Na      0.000000      0.000000      4.640000
