    9
 0024.xyz Energy 0.10724
   N     -0.277118     -0.542441      0.319903
   C      0.317206      0.620936     -0.366184
   H     -1.235264     -0.342180      0.635481
   H      0.271715     -0.810014      1.147591
   H     -0.320509     -1.361556     -0.300651
   H      0.335065      1.452356      0.340928
   H     -0.307594      0.853992     -1.230517
   H      1.327674      0.346245     -0.674847
  Na      0.000000      0.000000      5.060000
