    9
 0025.xyz Energy 0.089819
   N     -0.064470     -0.077492     -0.680598
   C      0.073789      0.088695      0.779076
   H     -0.968962     -0.501344     -0.925509
   H      0.674385     -0.683913     -1.060370
   H     -0.004058      0.826204     -1.168042
   H      0.001490     -0.900007      1.236052
   H     -0.734745      0.738533      1.119288
   H      1.048516      0.540491      0.972885
  Na      0.000000      0.000000      5.440000
