    9
 0027.xyz Energy 0.0797598
   N      0.020602      0.307260     -0.615258
   C     -0.023586     -0.351729      0.704274
   H     -0.516831     -0.220200     -1.315750
   H      0.985633      0.387644     -0.961861
   H     -0.373252      1.256496     -0.573456
   H      0.405975     -1.349171      0.593938
   H     -1.068557     -0.406505      1.015394
   H      0.561793      0.253175      1.399397
  Na      0.000000      0.000000      6.220000
