    9
 0029.xyz Energy 0.129666
   N      0.102789     -0.630983      0.254301
   C     -0.117671      0.722283     -0.291086
   H     -0.697105     -0.941390      0.821359
   H      0.937799     -0.661866      0.854039
   H      0.235753     -1.320737     -0.497018
   H     -0.251021      1.404020      0.550959
   H     -1.012878      0.689159     -0.915001
   H      0.761232      0.992404     -0.879591
  Na      0.000000      0.000000      4.080000
