    9
 0032.xyz Energy 0.10307
   N     -0.017417     -0.567596      0.388467
   C      0.019929      0.649716     -0.444683
   H     -0.238474     -1.399902     -0.173795
   H     -0.729854     -0.494726      1.126710
   H      0.887643     -0.735550      0.847353
   H     -0.963917      0.772019     -0.901493
   H      0.791149      0.510704     -1.204721
   H      0.258006      1.492913      0.206555
  Na      0.000000      0.000000      5.320000
