    8
 0000.xyz Energy 0.141038
   C     -0.139666     -1.379381     -0.441163
   C      0.016919      0.107357      0.035632
   O      1.169291      0.441881      0.512026
   O     -1.040110      0.839962     -0.101978
   H      0.796019     -1.936533     -0.310160
   H     -0.944915     -1.861159      0.133248
   H     -0.438993     -1.392135     -1.499646
  Cl      0.000000      0.000000      3.180000
