    8
 0001.xyz Energy 0.0896594
   C     -0.290749     -0.424134      1.361028
   C      0.028133      0.030280     -0.106645
   O      1.197913     -0.271002     -0.562347
   O     -0.928146      0.665584     -0.702359
   H      0.555266     -0.968260      1.798376
   H     -0.521775      0.461040      1.972239
   H     -1.186298     -1.062979      1.357374
  Cl      0.000000      0.000000      4.800000
