    8
 0002.xyz Energy 0.112687
   C      0.777542     -1.218911      0.162817
   C     -0.060764      0.096662     -0.006757
   O     -0.417993      0.696853      1.079050
   O     -0.304742      0.435642     -1.230899
   H      0.959485     -1.437212      1.222217
   H      0.236644     -2.055818     -0.303552
   H      1.735035     -1.110850     -0.367912
  Cl      0.000000      0.000000      4.480000
