    8
 0003.xyz Energy 0.108519
   C     -0.576516     -1.330250      0.122010
   C      0.041391      0.105681     -0.014138
   O     -0.379155      0.823231     -1.001600
   O      0.915390      0.412735      0.888524
   H     -1.318247     -1.516944     -0.664163
   H      0.228159     -2.078142      0.061668
   H     -1.045252     -1.431990      1.112000
  Cl      0.000000      0.000000      4.520000
