    8
 0005.xyz Energy 0.0976598
   C     -1.450324      0.081008     -0.082587
   C      0.114248     -0.005351      0.000471
   O      0.754239      0.032861     -1.120141
   O      0.593450     -0.108429      1.197424
   H     -1.785437      0.181926     -1.122107
   H     -1.887384     -0.824230      0.364635
   H     -1.798954      0.940299      0.509207
  Cl      0.000000      0.000000      5.480000
