    8
 0006.xyz Energy 0.0839243
   C     -1.164265     -0.403961      0.773385
   C      0.087731      0.034080     -0.064986
   O     -0.145864      0.532390     -1.232865
   O      1.228121     -0.157402      0.514498
   H     -2.094632     -0.199524      0.229592
   H     -1.091570     -1.478419      0.998642
   H     -1.164962      0.133089      1.733448
  Cl      0.000000      0.000000      5.700000
