    8
 0007.xyz Energy 0.107307
   C     -1.186943     -0.647630      0.537181
   C      0.094277      0.045936     -0.045642
   O      0.835797     -0.671358     -0.821824
   O      0.267192      1.273566      0.323115
   H     -1.278606     -1.677941      0.172292
   H     -1.132801     -0.643890      1.636063
   H     -2.076607     -0.067491      0.250682
  Cl      0.000000      0.000000      3.960000
