    8
 0009.xyz Energy 0.0882042
   C     -0.189045      1.018137      1.021999
   C      0.016062     -0.084049     -0.075890
   O      0.438765     -1.233466      0.332744
   O     -0.263016      0.287785     -1.282874
   H      0.050702      0.630797      2.019785
   H      0.452544      1.881946      0.792473
   H     -1.231704      1.367875      0.995748
  Cl      0.000000      0.000000      5.120000
