    8
 0011.xyz Energy 0.105788
   C     -0.260370      1.105324     -0.909555
   C      0.021023     -0.082822      0.076026
   O      0.352646      0.234961      1.282617
   O     -0.110557     -1.262460     -0.437876
   H     -0.145659      2.072403     -0.404889
   H      0.434810      1.042949     -1.760037
   H     -1.279895      1.010460     -1.311690
  Cl      0.000000      0.000000      5.300000
