    8
 0014.xyz Energy 0.129414
   C      1.386586     -0.403738     -0.176634
   C     -0.110097      0.029889      0.008165
   O     -0.864074     -0.039954     -1.037522
   O     -0.424269      0.415485      1.202137
   H      1.578237     -0.732115     -1.205480
   H      2.042706      0.443258      0.073548
   H      1.618856     -1.217332      0.526401
  Cl      0.000000      0.000000      4.100000
