    8
 0015.xyz Energy 0.0921449
   C      0.141056     -0.063508      1.446684
   C     -0.011020     -0.001117     -0.113837
   O      0.064618     -1.124265     -0.746006
   O     -0.195505      1.183863     -0.598339
   H      0.278731     -1.096487      1.788863
   H      1.002682      0.549004      1.751501
   H     -0.753294      0.371521      1.916823
  Cl      0.000000      0.000000      4.700000
