    8
 0016.xyz Energy 0.112991
   C      1.041888      1.015162     -0.027171
   C     -0.081584     -0.079735      0.008238
   O     -0.368107     -0.574806      1.165661
   O     -0.599965     -0.368685     -1.140999
   H      1.424526      1.220792      0.979999
   H      1.861885      0.672016     -0.675508
   H      0.637239      1.937103     -0.470373
  Cl      0.000000      0.000000      4.600000
