    8
 0020.xyz Energy 0.0935774
   C     -0.876089      1.158757     -0.081074
   C      0.070252     -0.090255      0.000480
   O      0.600914     -0.485104     -1.108263
   O      0.212914     -0.591873      1.184111
   H     -0.938637      1.540225     -1.107552
   H     -1.878509      0.877638      0.274752
   H     -0.498751      1.945192      0.589210
  Cl      0.000000      0.000000      5.720000
