    8
 0022.xyz Energy 0.0914105
   C     -0.669961      0.902263      0.924065
   C      0.047501     -0.071166     -0.075898
   O     -0.685276     -0.585065     -1.006363
   O      1.308271     -0.253498      0.148088
   H     -1.729404      1.022164      0.666594
   H     -0.576423      0.505457      1.945966
   H     -0.166016      1.879913      0.904466
  Cl      0.000000      0.000000      4.760000
