    8
 0025.xyz Energy 0.101937
   C      0.317400      1.418273      0.067682
   C     -0.026141     -0.111345      0.000672
   O     -0.265520     -0.698460      1.125311
   O     -0.029124     -0.619535     -1.188736
   H      0.286828      1.784784      1.101036
   H      1.318363      1.583767     -0.357960
   H     -0.398822      1.979203     -0.550806
  Cl      0.000000      0.000000      5.100000
