    8
 0027.xyz Energy 0.093113
   C     -0.056400     -1.434423      0.236799
   C     -0.001149      0.112410     -0.021074
   O     -0.980196      0.620565     -0.691944
   O      1.033218      0.712380      0.471954
   H     -0.964213     -1.874215     -0.193951
   H      0.833545     -1.907319     -0.204622
   H     -0.025197     -1.623783      1.319994
  Cl      0.000000      0.000000      5.120000
