    8
 0032.xyz Energy 0.102372
   C     -1.128256      0.816270      0.421385
   C      0.087971     -0.061959     -0.038777
   O      0.343463     -0.075496     -1.304226
   O      0.704919     -0.683385      0.913147
   H     -1.593291      1.324674     -0.432052
   H     -1.868550      0.175453      0.923185
   H     -0.783563      1.557551      1.157478
  Cl      0.000000      0.000000      4.840000
