    8
 0033.xyz Energy 0.112496
   C      0.186859      0.368677     -1.394985
   C     -0.020585     -0.030011      0.108430
   O     -1.234775     -0.260937      0.481575
   O      1.061654     -0.081373      0.814882
   H     -0.767108      0.377531     -1.936239
   H      0.653934      1.363585     -1.444832
   H      0.879883     -0.343026     -1.867573
  Cl      0.000000      0.000000      5.000000
