    4
 0004.xyz Energy -0.0209193
   O     -2.551000      0.908000      0.000000
   H     -1.717000      0.385000      0.000000
   H     -2.201000      1.802000      0.000000
  Br      0.415704     -0.142907      0.000000
