    4
 0014.xyz Energy -0.0122869
   O     -2.537000      1.043000      0.000000
   H     -2.226000     -0.012000      0.000000
   H     -1.710000      1.768000      0.000000
  Br      1.380658      0.111789      0.000000
