    4
 0020.xyz Energy -0.0126616
   O     -2.537000      1.043000      0.000000
   H     -2.226000     -0.012000      0.000000
   H     -1.710000      1.768000      0.000000
  Br      0.409068      0.078442      0.000000
