    4
 0033.xyz Energy -0.00189441
   O      0.304453     -0.001077     -0.243696
   H      0.261967     -0.376185      0.640969
   H     -0.566419      0.377262     -0.397273
  Br      0.000000      0.000000      8.666452
