    4
 0052.xyz Energy 9.13807e-06
   O      0.266683      0.230266      0.167148
   H     -0.494615     -0.182529      0.585681
   H      0.227932     -0.047737     -0.752829
  Br      0.000000      0.000000     96.330894
