    4
 0055.xyz Energy -0.000230812
   O      0.155310      0.152599     -0.323532
   H      0.497562      0.211105      0.573454
   H     -0.652872     -0.363704     -0.249923
  Br      0.000000      0.000000     27.086595
