    4
 0064.xyz Energy 0.000252579
   O     -0.223971     -0.286003      0.141843
   H      0.735364     -0.273519      0.073551
   H     -0.511393      0.559523     -0.215393
  Br      0.000000      0.000000     18.113945
