    4
 0090.xyz Energy -1.8219e-05
   O     -0.201920     -0.264652     -0.203144
   H     -0.551236      0.419642      0.375529
   H      0.753156     -0.154990     -0.172385
  Br      0.000000      0.000000     75.760915
