    4
 0096.xyz Energy 0.000152194
   O      0.009271     -0.026284      0.388977
   H     -0.282016     -0.697006     -0.235864
   H      0.272745      0.723291     -0.153113
  Br      0.000000      0.000000     36.870539
