    4
 0107.xyz Energy -1.78123e-05
   O     -0.384041      0.005202     -0.067570
   H      0.299284      0.492158     -0.537766
   H      0.084757     -0.497360      0.605336
  Br      0.000000      0.000000     46.128013
