    4
 0122.xyz Energy 0.00018863
   O     -0.191402     -0.211937      0.265571
   H      0.719374      0.094447      0.307512
   H     -0.527972      0.117490     -0.573084
  Br      0.000000      0.000000     27.042711
