    4
 0131.xyz Energy 0.000587527
   O     -0.009848      0.141436      0.363289
   H     -0.181458      0.617536     -0.454648
   H      0.191306     -0.758972      0.091359
  Br      0.000000      0.000000     18.132462
