    4
 0154.xyz Energy -1.65106e-05
   O      0.251922     -0.288006     -0.075290
   H     -0.697231     -0.361993      0.061745
   H      0.445310      0.649999      0.013544
  Br      0.000000      0.000000     46.059959
