    4
 0161.xyz Energy -0.000585866
   O     -0.055781     -0.125758     -0.364902
   H      0.295660     -0.624746      0.378498
   H     -0.239879      0.750504     -0.013596
  Br      0.000000      0.000000     17.759336
