    4
 0208.xyz Energy 2.67951e-05
   O     -0.065580     -0.061202      0.379518
   H      0.263275      0.741909     -0.035224
   H     -0.197695     -0.680706     -0.344294
  Br      0.000000      0.000000     86.327673
