    4
 0216.xyz Energy 4.07557e-05
   O      0.187553      0.035818      0.340031
   H     -0.709482     -0.280546      0.197260
   H      0.521929      0.244728     -0.537291
  Br      0.000000      0.000000     66.090317
