    4
 0225.xyz Energy 2.75389e-05
   O     -0.126591      0.330441      0.163901
   H     -0.424758     -0.565343      0.347780
   H      0.551350      0.234902     -0.511681
  Br      0.000000      0.000000     55.824023
