    4
 0235.xyz Energy 4.65007e-05
   O     -0.131628     -0.237398      0.279994
   H      0.534022      0.451962      0.362676
   H     -0.402394     -0.214564     -0.642670
  Br      0.000000      0.000000     55.826017
