    4
 0250.xyz Energy 0.000343371
   O      0.372518     -0.114268      0.015926
   H     -0.412121     -0.663679      0.103293
   H      0.039603      0.777947     -0.119218
  Br      0.000000      0.000000      8.591485
