    4
 0292.xyz Energy 3.17549e-05
   O     -0.377276      0.076934      0.061843
   H      0.153579      0.327520     -0.700091
   H      0.223696     -0.404454      0.638247
  Br      0.000000      0.000000     27.101142
