    4
 0318.xyz Energy -2.72282e-05
   O      0.026128     -0.025158     -0.388284
   H      0.735239     -0.126986      0.253538
   H     -0.761366      0.152144      0.134746
  Br      0.000000      0.000000     85.937652
