    4
 0339.xyz Energy 2.1863e-05
   O      0.035573     -0.003344      0.388334
   H      0.740987     -0.046658     -0.264090
   H     -0.776560      0.050002     -0.124244
  Br      0.000000      0.000000     96.669790
