    4
 0342.xyz Energy -0.000206903
   O     -0.131745      0.221019     -0.293043
   H      0.736586     -0.184409     -0.210753
   H     -0.604841     -0.036610      0.503796
  Br      0.000000      0.000000     27.072618
