    4
 0378.xyz Energy -9.92233e-06
   O     -0.236564      0.277333     -0.138580
   H     -0.395311     -0.307328      0.608491
   H      0.631875      0.029996     -0.469911
  Br      0.000000      0.000000     85.994945
