    4
 0383.xyz Energy -0.000130485
   O     -0.012254      0.194604     -0.337727
   H     -0.531140     -0.575557     -0.087220
   H      0.543394      0.380954      0.424947
  Br      0.000000      0.000000     36.501240
