    4
 0391.xyz Energy -0.000514829
   O      0.035538     -0.213578     -0.324348
   H      0.722273     -0.002339      0.315118
   H     -0.757811      0.215917      0.009231
  Br      0.000000      0.000000     17.751049
