    4
 0442.xyz Energy 8.37076e-05
   O     -0.374532     -0.018665      0.107040
   H      0.214550      0.739135      0.169204
   H      0.159982     -0.720470     -0.276244
  Br      0.000000      0.000000     27.030228
