    4
 0523.xyz Energy 0.00013922
   O      0.122481     -0.102172      0.355865
   H     -0.200286     -0.681852     -0.340509
   H      0.077805      0.784024     -0.015356
  Br      0.000000      0.000000     36.866470
