    4
 0527.xyz Energy 3.2361e-05
   O      0.122481     -0.102172      0.355865
   H     -0.200286     -0.681852     -0.340509
   H      0.077805      0.784024     -0.015356
  Br      0.000000      0.000000     76.133581
