    4
 0530.xyz Energy 0.00257722
   O      0.072602     -0.004041      0.383136
   H      0.684712     -0.207332     -0.330403
   H     -0.757314      0.211372     -0.052733
  Br      0.000000      0.000000      8.992128
