    4
 0573.xyz Energy -0.000145916
   O      0.039329     -0.083567     -0.378880
   H     -0.335104     -0.643379      0.307817
   H      0.295775      0.726946      0.071063
  Br      0.000000      0.000000     36.485079
