    4
 0591.xyz Energy -0.000388794
   O      0.222049      0.198252     -0.251934
   H     -0.627556      0.463005      0.113061
   H      0.405507     -0.661258      0.138873
  Br      0.000000      0.000000     17.735899
