    4
 0615.xyz Energy 4.4501e-05
   O      0.153051      0.237294      0.268975
   H      0.015320      0.423063     -0.664654
   H     -0.168371     -0.660357      0.395680
  Br      0.000000      0.000000     55.830728
