    4
 0626.xyz Energy -2.82936e-05
   O      0.080949      0.299089     -0.236798
   H      0.541393     -0.543489     -0.180265
   H     -0.622342      0.244400      0.417063
  Br      0.000000      0.000000     65.725660
