    4
 0647.xyz Energy -0.0183648
   O     -2.547000      0.907000      0.000000
   H     -1.712000      0.386000      0.000000
   H     -2.199000      1.802000      0.000000
  Br      1.045579     -0.337895      0.000000
