    4
 0650.xyz Energy -0.0211609
   O     -2.547000      0.907000      0.000000
   H     -1.712000      0.386000      0.000000
   H     -2.199000      1.802000      0.000000
  Br      0.434116     -0.177379      0.000000
