    4
 0651.xyz Energy -0.0122999
   O     -2.547000      0.907000      0.000000
   H     -1.712000      0.386000      0.000000
   H     -2.199000      1.802000      0.000000
  Br      0.134379     -0.098695      0.000000
