   19
 0001.xyz Energy 0.119236
   N     -0.178480     -0.291116      1.199303
   C     -0.503605     -0.076358     -0.254716
   H     -1.014212     -0.610589      1.717490
   H      0.154294      0.586247      1.633139
   H      0.560706     -1.005760      1.307123
   H     -1.309831      0.662634     -0.292931
   H     -0.877249     -1.030471     -0.638929
   C      0.676533      0.401914     -1.119527
   H      1.059084      1.359424     -0.757687
   H      0.356611      0.531910     -2.156356
   H      1.490214     -0.327287     -1.102201
   N      0.107222      0.679575      4.987467
   C     -0.122741     -0.777903      4.971465
   H      0.168536      1.038753      5.949220
   H     -0.655204      1.184443      4.516622
   H      0.983534      0.925971      4.508628
   H     -1.062241     -0.973449      5.491743
   H      0.715884     -1.253963      5.483164
   H     -0.177914     -1.095828      3.928559
