   19
 0002.xyz Energy 0.0792964
   N     -0.417783     -0.321882     -1.129947
   C     -0.461462      0.034344      0.331967
   H     -1.369110     -0.508532     -1.489345
   H      0.156744     -1.167523     -1.283339
   H     -0.009923      0.450726     -1.682635
   H     -0.930808     -0.808180      0.849112
   H     -1.107813      0.912621      0.423720
   C      0.908106      0.332476      0.968182
   H      1.566656     -0.536489      0.895294
   H      0.787222      0.581527      2.025359
   H      1.390465      1.177788      0.471303
   N     -0.079369     -0.029973      6.142772
   C      0.090842      0.034303      4.678436
   H     -0.671194     -0.825234      6.416707
   H     -0.521461      0.824500      6.506515
   H      0.824930     -0.138054      6.620768
   H     -0.898701      0.148462      4.231939
   H      0.562169     -0.896045      4.355846
   H      0.724721      0.894135      4.453361
