   19
 0003.xyz Energy 0.0965966
   N     -0.482255      1.102311     -0.327523
   C     -0.014707     -0.321464     -0.469865
   H     -0.854816      1.456206     -1.224733
   H      0.297408      1.716039     -0.037380
   H     -1.230343      1.172361      0.382544
   H      0.748011     -0.327143     -1.254594
   H     -0.876891     -0.904598     -0.807732
   C      0.560511     -0.946728      0.813699
   H      1.429492     -0.383849      1.163182
   H      0.874202     -1.976312      0.624445
   H     -0.189309     -0.958929      1.608515
   N     -0.535970     -0.377842      4.828198
   C      0.613512      0.432518      4.381669
   H     -1.280567     -0.394848      4.118956
   H     -0.943345     -0.004380      5.695638
   H     -0.259724     -1.351721      5.010315
   H      0.257179      1.449276      4.206121
   H      0.998949     -0.012624      3.462404
   H      1.364886      0.410997      5.173342
