   19
 0004.xyz Energy 0.0856261
   N      0.558286      0.599454     -0.940161
   C      0.025338     -0.553382     -0.132117
   H      1.001044      0.261577     -1.811272
   H      1.266034      1.126993     -0.402097
   H     -0.203567      1.249504     -1.196585
   H      0.873303     -1.213361      0.075132
   H     -0.689372     -1.082341     -0.770046
   C     -0.656641     -0.158366      1.190091
   H      0.043774      0.363807      1.846486
   H     -1.013727     -1.049730      1.711840
   H     -1.512980      0.494584      1.004481
   N     -0.168132     -0.487956      5.165021
   C      0.192457      0.558568      6.140801
   H     -0.029091     -0.163558      4.199013
   H     -1.154194     -0.764757      5.259585
   H      0.404123     -1.332961      5.293119
   H     -0.446239      1.423831      5.953789
   H      1.244669      0.807392      5.990141
   H      0.023817      0.154924      7.141004
