   19
 0010.xyz Energy 0.0859942
   N      1.015080     -0.220171     -0.689977
   C     -0.240775      0.465645     -0.222555
   H      1.418453      0.271589     -1.505140
   H      0.817229     -1.196179     -0.967435
   H      1.724939     -0.235218      0.061430
   H     -0.931243      0.474526     -1.071523
   H      0.034705      1.495979      0.022564
   C     -0.923866     -0.188948      0.991636
   H     -1.215733     -1.217180      0.764362
   H     -1.823045      0.368672      1.265132
   H     -0.253268     -0.199771      1.854360
   N     -0.528179     -0.286554      5.264905
   C      0.604605      0.328022      5.983569
   H     -0.363923     -0.302015      4.249760
   H     -1.401517      0.231294      5.429205
   H     -0.682215     -1.257191      5.568311
   H      0.715903      1.350911      5.619017
   H      1.496478     -0.264152      5.769900
   H      0.370516      0.314475      7.049774
