   19
 0011.xyz Energy 0.091281
   N      0.044935      0.851654     -0.909723
   C      0.425106      0.130546      0.355769
   H      0.673336      1.655884     -1.075121
   H     -0.924401      1.206227     -0.851549
   H      0.109387      0.218901     -1.724712
   H      0.366615      0.862710      1.166994
   H      1.465661     -0.187055      0.237726
   C     -0.451269     -1.088253      0.696157
   H     -1.494525     -0.790826      0.827509
   H     -0.108975     -1.552010      1.624611
   H     -0.399782     -1.836623     -0.098451
   N      0.246085     -0.625549      4.946648
   C     -0.281682      0.716061      4.632123
   H      1.218772     -0.729524      4.629146
   H     -0.308453     -1.362570      4.491491
   H      0.229929     -0.806745      5.958985
   H     -0.238211      0.846556      3.549225
   H      0.346031      1.449734      5.141497
   H     -1.311212      0.762758      4.992209
