   19
 0013.xyz Energy 0.0862081
   N     -0.057115     -1.000326     -0.742305
   C     -0.475989     -0.011384      0.312463
   H     -0.765674     -1.746095     -0.846234
   H      0.842888     -1.443013     -0.491823
   H      0.056064     -0.533022     -1.657486
   H     -0.608018     -0.575667      1.240754
   H     -1.444384      0.391688      0.000528
   C      0.512986      1.144560      0.547176
   H      1.485268      0.763415      0.868883
   H      0.134474      1.813527      1.324012
   H      0.652233      1.727057     -0.366836
   N      0.401336      0.357734      5.509338
   C     -0.459396     -0.409505      4.588540
   H      1.386504      0.074866      5.424679
   H      0.121860      0.216245      6.489008
   H      0.351328      1.366698      5.315920
   H     -0.362786     -1.466434      4.843790
   H     -0.113755     -0.218198      3.570849
   H     -1.486059     -0.064690      4.725792
