   19
 0015.xyz Energy 0.0851348
   N     -0.007186     -0.858629     -0.904232
   C     -0.247975      0.461790     -0.222681
   H     -0.359747     -0.838135     -1.875988
   H     -0.489519     -1.622762     -0.402061
   H      1.002891     -1.077056     -0.932027
   H     -1.326483      0.643924     -0.257592
   H      0.260869      1.223509     -0.821364
   C      0.241629      0.538376      1.234642
   H     -0.261912     -0.209230      1.852406
   H      0.029843      1.525576      1.652784
   H      1.319548      0.367936      1.290782
   N      0.053739      0.040265      5.764738
   C     -0.061510     -0.046104      4.296187
   H      0.694026     -0.675318      6.133126
   H     -0.858006     -0.095999      6.220845
   H      0.412919      0.958006      6.059119
   H     -0.445599     -1.037578      4.049121
   H      0.933492      0.106007      3.873583
   H     -0.750647      0.734723      3.968815
