   19
 0017.xyz Energy 0.106433
   N      0.164379      1.101404     -0.561088
   C      0.519644     -0.174380      0.154566
   H      1.012325      1.660684     -0.754019
   H     -0.477348      1.675306      0.011226
   H     -0.300013      0.898228     -1.462086
   H      1.033020      0.112808      1.077354
   H      1.221216     -0.712993     -0.489834
   C     -0.675664     -1.084203      0.490464
   H     -1.384862     -0.567608      1.141824
   H     -0.331906     -1.984415      1.005934
   H     -1.197561     -1.390153     -0.419552
   N      0.072206     -0.082297      3.960744
   C     -0.082642      0.094199      5.417540
   H      0.756748     -0.818345      3.743092
   H      0.395722      0.784063      3.510590
   H     -0.817950     -0.346985      3.518612
   H      0.890792      0.372748      5.825490
   H     -0.426059     -0.854572      5.834264
   H     -0.817892      0.884238      5.581911
