   19
 0020.xyz Energy 0.0974233
   N     -1.134453     -0.515966      0.041549
   C     -0.038698      0.429943     -0.371457
   H     -2.016378     -0.290160     -0.448601
   H     -1.306109     -0.454871      1.059154
   H     -0.879965     -1.491914     -0.185389
   H     -0.386178      1.439997     -0.133509
   H      0.066590      0.336541     -1.456699
   C      1.322321      0.179993      0.302724
   H      1.240945      0.277827      1.388038
   H      2.058168      0.906246     -0.051323
   H      1.691942     -0.821667      0.069981
   N     -0.153525      0.013851      5.350532
   C      0.175726     -0.015849      3.912445
   H     -1.170371      0.044397      5.501621
   H      0.252656      0.838995      5.811004
   H      0.206406     -0.819208      5.834663
   H     -0.230966      0.889509      3.458007
   H     -0.281231     -0.909743      3.483604
   H      1.262974     -0.047562      3.819387
