   19
 0026.xyz Energy 0.123425
   N     -0.376233     -0.061891      1.187244
   C     -0.451936     -0.147102     -0.313758
   H     -1.283862     -0.313224      1.613941
   H     -0.133139      0.897045      1.487354
   H      0.342739     -0.707631      1.554446
   H     -1.249112      0.532872     -0.629537
   H     -0.742780     -1.173549     -0.557428
   C      0.852026      0.208709     -1.050269
   H      1.155411      1.234574     -0.827427
   H      0.711543      0.121230     -2.130488
   H      1.659978     -0.465361     -0.755389
   N     -0.488235      0.422686      4.882644
   C      0.558882     -0.483836      5.391708
   H     -0.293588      1.400119      5.136565
   H     -1.411627      0.181376      5.266047
   H     -0.557342      0.377138      3.857428
   H      0.582248     -0.389808      6.478998
   H      1.509285     -0.177353      4.950615
   H      0.296038     -1.499848      5.091032
