    2
 0000.xyz Energy -0.193341
  Na      0.000000      0.000000     -1.947000
  Br     -0.000000      0.000000      0.818400
