    2
 0003.xyz Energy -0.175762
  Na      0.000000      0.000000     -1.947000
  Br     -0.000000      0.000000      1.255042
