    2
 0004.xyz Energy -0.173941
  Na      0.000000      0.000000     -1.947000
  Br     -0.000000      0.000000      1.294737
