    2
 0007.xyz Energy -0.182883
  Na      0.000000      0.000000     -1.947000
  Br      0.000000      0.000000      1.096263
