    2
 0012.xyz Energy 0.0900512
  Na      0.000000      0.000000     -1.947000
  Br      0.000000      0.000000     -0.293053
