    2
 0014.xyz Energy -0.166948
  Na      0.000000      0.000000     -1.947000
  Br     -0.000000      0.000000      1.446900
