    2
 0016.xyz Energy -0.175291
  Na      0.000000      0.000000     -1.947000
  Br     -0.000000      0.000000      1.265333
