    2
 0019.xyz Energy -0.196626
  Na      0.000000      0.000000     -1.947000
  Br      0.000000      0.000000     -4.461000
