    2
 0023.xyz Energy -0.187488
  Na      0.000000      0.000000     -1.947000
  Br      0.000000      0.000000      0.986000
