    2
 0024.xyz Energy -0.194467
  Na      0.000000      0.000000     -1.947000
  Br      0.000000      0.000000      0.776500
