    2
 0027.xyz Energy -0.028532
  Na      0.000000      0.000000     -1.947000
  Br      0.000000      0.000000     -0.159267
