    2
 0028.xyz Energy -0.155732
  Na      0.000000      0.000000     -1.947000
  Br     -0.000000      0.000000      1.698300
