    2
 0035.xyz Energy -0.186362
  Na      0.000000      0.000000     -1.947000
  Br      0.000000      0.000000     -4.907933
