    2
 0036.xyz Energy -0.149827
  Na      0.000000      0.000000     -1.947000
  Br      0.000000      0.000000     -5.731967
