    2
 0037.xyz Energy -0.119395
  Na      0.000000      0.000000     -1.947000
  Br      0.000000      0.000000     -6.607211
