    2
 0039.xyz Energy -0.0819539
  Na      0.000000      0.000000     -1.947000
  Br      0.000000      0.000000     -8.511333
