    2
 0040.xyz Energy -0.0703363
  Na      0.000000      0.000000     -1.947000
  Br      0.000000      0.000000     -9.540211
