    2
 0042.xyz Energy -0.0541649
  Na      0.000000      0.000000     -1.947000
  Br      0.000000      0.000000    -11.751600
