    2
 0043.xyz Energy -0.0482806
  Na      0.000000      0.000000     -1.947000
  Br      0.000000      0.000000    -12.934111
