    2
 0045.xyz Energy -0.0392305
  Na      0.000000      0.000000     -1.947000
  Br      0.000000      0.000000    -15.452767
