    2
 0048.xyz Energy -0.0299678
  Na      0.000000      0.000000     -1.947000
  Br      0.000000      0.000000    -19.614833
