    2
 0049.xyz Energy -0.0276341
  Na      0.000000      0.000000     -1.947000
  Br      0.000000      0.000000    -21.104611
