    2
 0059.xyz Energy 1.50034
  Na      0.000000      0.000000     -1.947000
  Br      0.000000      0.000000     -0.815700
