    2
 0061.xyz Energy 8.16002
  Na      0.000000      0.000000     -1.947000
  Br      0.000000      0.000000     -2.701200
