    2
 0066.xyz Energy -0.0696289
  Na      0.000000      0.000000     -1.947000
  Br      0.000000      0.000000     -9.614700
