    2
 0067.xyz Energy -0.0563613
  Na      0.000000      0.000000     -1.947000
  Br      0.000000      0.000000    -11.374500
