    2
 0070.xyz Energy -0.0397673
  Na      0.000000      0.000000     -1.947000
  Br      0.000000      0.000000    -15.271200
