    2
 0073.xyz Energy -0.0263212
  Na      0.000000      0.000000     -1.947000
  Br      0.000000      0.000000    -22.059000
