    2
 0074.xyz Energy -0.0233941
  Na      0.000000      0.000000     -1.947000
  Br      0.000000      0.000000    -24.573000
