    2
 0099.xyz Energy -0.180203
  Na      0.000000      0.000000     -1.947000
  Br      0.000000      0.000000      1.157020
