    2
 0101.xyz Energy -0.189779
  Na      0.000000      0.000000     -1.947000
  Br      0.000000      0.000000      0.926143
