    2
 0102.xyz Energy -0.195851
  Na      0.000000      0.000000     -1.947000
  Br      0.000000      0.000000      0.710657
