    2
 0105.xyz Energy 0.140267
  Na      0.000000      0.000000     -1.947000
  Br      0.000000      0.000000     -0.335988
