    2
 0106.xyz Energy 1.51556
  Na      0.000000      0.000000     -1.947000
  Br      0.000000      0.000000     -0.818265
