    2
 0110.xyz Energy 0.364312
  Na      0.000000      0.000000     -1.947000
  Br      0.000000      0.000000     -3.414355
