    2
 0111.xyz Energy -0.186696
  Na      0.000000      0.000000     -1.947000
  Br      0.000000      0.000000     -4.230122
