    2
 0113.xyz Energy -0.137027
  Na      0.000000      0.000000     -1.947000
  Br      0.000000      0.000000     -6.061751
