    2
 0115.xyz Energy -0.0869274
  Na      0.000000      0.000000     -1.947000
  Br      0.000000      0.000000     -8.160171
