    2
 0116.xyz Energy -0.0726279
  Na      0.000000      0.000000     -1.947000
  Br      0.000000      0.000000     -9.309429
