    2
 0117.xyz Energy -0.0620447
  Na      0.000000      0.000000     -1.947000
  Br      0.000000      0.000000    -10.525384
