    2
 0119.xyz Energy -0.0473118
  Na      0.000000      0.000000     -1.947000
  Br      0.000000      0.000000    -13.157388
