    2
 0121.xyz Energy -0.0375467
  Na      0.000000      0.000000     -1.947000
  Br      0.000000      0.000000    -16.056184
