    2
 0125.xyz Energy -0.0255639
  Na      0.000000      0.000000     -1.947000
  Br      0.000000      0.000000    -22.654151
