    2
 0127.xyz Energy -0.0216864
  Na      0.000000      0.000000     -1.947000
  Br      0.000000      0.000000    -26.353322
