    2
 0129.xyz Energy -0.0500941
  Na      0.000000      0.000000     -1.947000
  Br      0.000000      0.000000    -30.319286
