    2
 0134.xyz Energy -0.0514938
  Na      0.000000      0.000000     -1.947000
  Br      0.000000      0.000000    -12.254400
