    2
 0135.xyz Energy -0.0434793
  Na      0.000000      0.000000     -1.947000
  Br      0.000000      0.000000    -14.139900
