    2
 0136.xyz Energy -0.037295
  Na      0.000000      0.000000     -1.947000
  Br      0.000000      0.000000    -16.151100
