    2
 0137.xyz Energy -0.0324058
  Na      0.000000      0.000000     -1.947000
  Br      0.000000      0.000000    -18.288000
