   16
 0001.xyz Energy 0.121931
   H     -0.975153      0.311903     -0.018916
   N      0.000005     -0.000002      0.000000
   H      0.030728     -1.023326      0.018610
   H      0.483638      0.340866     -0.835737
   H      0.460713      0.370581      0.836041
   N     -0.530244     -0.045556      3.932305
   C      0.517609     -0.229094      4.997347
   H     -0.192015     -0.399832      3.021745
   H     -0.767766      0.954442      3.821366
   H     -1.394180     -0.557852      4.177062
   H      1.409057      0.308745      4.660271
   H      0.742210     -1.299351      5.038143
   C      0.113615      0.267401      6.397222
   H     -0.106253      1.337668      6.380279
   H      0.926502      0.097052      7.107473
   H     -0.770818     -0.264280      6.756673
