   16
 0002.xyz Energy 0.0903267
   H     -1.010585     -0.161381     -0.035184
   N      0.000006      0.000001      0.000000
   H      0.181994      1.001246      0.113453
   H      0.399947     -0.511494      0.791813
   H      0.428567     -0.328383     -0.870085
   N      0.092285      0.851739      5.886066
   C      0.128965     -0.498915      5.222448
   H      0.340386      0.774252      6.886801
   H     -0.852195      1.266682      5.818998
   H      0.762161      1.498343      5.436722
   H     -0.574927     -1.137369      5.765111
   H      1.141817     -0.890218      5.358724
   C     -0.226081     -0.495622      3.724684
   H     -1.238778     -0.116435      3.567324
   H     -0.175105     -1.510376      3.322269
   H      0.471450      0.130031      3.162439
