   16
 0007.xyz Energy 0.0899836
   H      0.909698      0.285983      0.373133
   N     -0.000005     -0.000002     -0.000002
   H     -0.611957     -0.281631      0.771154
   H     -0.424238      0.784284     -0.503461
   H      0.126567     -0.788614     -0.640798
   N     -0.160677     -0.209418      6.298712
   C     -0.038649     -0.509578      4.828674
   H     -0.331965     -1.076127      6.835838
   H     -0.945275      0.440099      6.475494
   H      0.706181      0.225780      6.656340
   H     -0.971748     -0.994777      4.526219
   H      0.784498     -1.222332      4.719259
   C      0.218488      0.717238      3.935270
   H     -0.597853      1.438356      4.022888
   H      0.294254      0.412837      2.888437
   H      1.151773      1.211838      4.215378
