   16
 0012.xyz Energy 0.112401
   H      0.647019     -0.756509     -0.240050
   N     -0.000004      0.000004      0.000001
   H      0.159421      0.796253     -0.623741
   H     -0.963948     -0.328864     -0.105850
   H      0.157557      0.289063      0.969624
   N     -1.238440     -0.087848      4.283899
   C      0.130766      0.537357      4.264070
   H     -1.958842      0.600844      4.008664
   H     -1.468482     -0.434680      5.230211
   H     -1.286208     -0.884701      3.627027
   H      0.100454      1.387548      4.952420
   H      0.293681      0.908450      3.247552
   C      1.280614     -0.406435      4.659635
   H      1.141689     -0.781491      5.676558
   H      2.235359      0.123707      4.618717
   H      1.334053     -1.258991      3.978163
