   16
 0017.xyz Energy 0.111037
   H     -0.688378     -0.094677      0.752155
   N      0.000004      0.000001     -0.000004
   H     -0.408715     -0.327370     -0.879925
   H      0.269804      0.983326     -0.093957
   H      0.827237     -0.561287      0.221784
   N      0.201344      1.228917      4.335543
   C     -0.540555     -0.077269      4.238265
   H     -0.409073      2.017336      4.062018
   H      1.026254      1.228299      3.712453
   H      0.526919      1.393468      5.302839
   H     -0.882098     -0.170881      3.202815
   H     -1.412566      0.005337      4.894263
   C      0.280820     -1.320204      4.625333
   H      1.152686     -1.426409      3.975201
   H     -0.329474     -2.221494      4.527980
   H      0.624437     -1.250742      5.660327
