   16
 0018.xyz Energy 0.138129
   H     -0.534497     -0.425979     -0.762508
   N      0.000003      0.000002      0.000004
   H      0.488155     -0.731334      0.524730
   H      0.683845      0.656245     -0.387622
   H     -0.637543      0.501036      0.625343
   N     -0.159775      0.484288      3.302077
   C      0.095463      0.442913      4.785027
   H     -0.142520      1.458137      2.955162
   H     -1.083935      0.078480      3.078544
   H      0.561192     -0.052826      2.791732
   H     -0.680249      1.053849      5.256831
   H      1.069148      0.914012      4.951049
   C      0.091174     -0.966016      5.404922
   H     -0.876943     -1.451063      5.258028
   H      0.283806     -0.906608      6.478991
   H      0.865809     -1.590507      4.953190
