   16
 0020.xyz Energy 0.129071
   H      0.366044      0.956042     -0.023685
   N     -0.000002     -0.000005      0.000000
   H     -1.023492      0.026687      0.015431
   H      0.315726     -0.507053     -0.831725
   H      0.341750     -0.475603      0.839977
   N     -0.060234      0.278612      3.606049
   C     -0.397157      0.320621      5.072581
   H     -0.660520      0.931144      3.074176
   H     -0.200959     -0.672239      3.225526
   H      0.925800      0.546863      3.449471
   H     -1.456130      0.059434      5.161616
   H     -0.257526      1.355742      5.399059
   C      0.442248     -0.617752      5.958144
   H      0.309610     -1.658951      5.654150
   H      0.135629     -0.525436      7.003001
   H      1.503840     -0.367633      5.890520
