   16
 0021.xyz Energy 0.107701
   H      0.318808     -0.664353      0.711028
   N     -0.000002      0.000004     -0.000004
   H     -0.932992     -0.269281     -0.324809
   H     -0.037340      0.940282      0.403766
   H      0.651549     -0.006698     -0.789931
   N     -0.510068      0.980053      4.658150
   C      0.545892      0.137570      3.993944
   H     -0.117483      1.887901      4.959343
   H     -0.889992      0.500436      5.491423
   H     -1.291818      1.166412      4.007861
   H      1.351781      0.007585      4.722791
   H      0.923760      0.716106      3.145375
   C      0.064108     -1.240439      3.505741
   H     -0.309246     -1.838543      4.340594
   H      0.888168     -1.784523      3.037596
   H     -0.735894     -1.132679      2.769198
