   16
 0025.xyz Energy 0.132116
   H     -0.178010     -1.003834      0.095889
   N      0.000001      0.000005     -0.000001
   H      0.945526      0.212097      0.330882
   H     -0.085640      0.269332     -0.984215
   H     -0.681889      0.522329      0.557451
   N     -0.186358      0.122946      3.493181
   C     -0.379004      0.344021      4.969667
   H     -0.853238      0.694684      2.947822
   H     -0.337989     -0.870128      3.249191
   H      0.771999      0.383678      3.206288
   H     -1.416731      0.080749      5.196341
   H     -0.236029      1.413881      5.149997
   C      0.568114     -0.463343      5.875479
   H      0.434462     -1.536304      5.717394
   H      0.362951     -0.244915      6.926412
   H      1.610843     -0.208322      5.671047
