   16
 0026.xyz Energy 0.0909282
   H     -0.191083     -0.873959     -0.498244
   N      0.000001      0.000005      0.000003
   H     -0.871481      0.525317      0.114231
   H      0.394342     -0.211417      0.921059
   H      0.668208      0.559992     -0.537083
   N     -0.172666     -0.538386      6.151422
   C     -0.018680     -0.422412      4.658493
   H     -0.324725     -1.523005      6.427886
   H     -0.980000      0.017393      6.480116
   H      0.674430     -0.194840      6.634270
   H     -0.931244     -0.830842      4.213541
   H      0.828142     -1.056388      4.378267
   C      0.213272      1.008037      4.139472
   H     -0.626678      1.656186      4.401170
   H      0.314665      1.003156      3.051374
   H      1.126069      1.431614      4.565496
