    8
 0000.xyz Energy 0.126708
   O      0.134110     -0.469815     -1.051999
   O     -0.220256      0.136437      1.130618
   C      0.084295      0.326221     -0.076924
   H      0.362974      1.404611     -0.331321
   O     -0.507770     -0.892242      3.660104
   O      0.778922      0.790296      4.537840
   C     -0.265326      0.099761      4.397719
   H     -1.142498      0.429473      5.051298
