    8
 0001.xyz Energy 0.114736
   O      0.588751      0.084232      0.995837
   O     -0.350252      0.156821     -1.094602
   C     -0.233380     -0.235876      0.096639
   H     -1.004844     -1.015637      0.416205
   O      0.653972      0.452378      5.644446
   O     -0.465187     -0.225444      3.761636
   C     -0.184734     -0.222063      4.989749
   H     -0.795373     -0.956125      5.617107
