    8
 0002.xyz Energy 0.116455
   O      0.158576      0.017455      1.148896
   O      0.183112      0.071758     -1.143129
   C     -0.334351     -0.087297     -0.005650
   H     -1.439646     -0.375885     -0.024219
   O     -0.355266     -0.945918      4.150405
   O      0.530953      0.996017      4.987325
   C     -0.171911     -0.049018      5.015781
   H     -0.740257     -0.211152      5.993535
