    8
 0004.xyz Energy 0.098058
   O      0.028984      0.670770     -0.945855
   O      0.283307     -0.773412      0.816698
   C     -0.305584      0.100434      0.126389
   H     -1.315796      0.432515      0.544122
   O     -0.448488      0.511186      6.419660
   O      0.106247     -0.535290      4.456477
   C      0.334893      0.023583      5.562057
   H      1.441956      0.101594      5.833412
