    8
 0006.xyz Energy 0.114956
   O      0.709082     -0.419570     -0.816442
   O     -0.707477      0.080602      0.915644
   C     -0.001575      0.331690     -0.097067
   H     -0.006714      1.428168     -0.418030
   O      0.607691     -0.697569      5.339659
   O     -0.768073      0.392211      3.864334
   C      0.156934      0.298804      4.714370
   H      0.675792      1.286536      4.960293
