    8
 0009.xyz Energy 0.100763
   O     -0.693797     -0.402468      0.837902
   O      0.381984      0.482231     -0.983344
   C      0.305120     -0.078048      0.142314
   H      1.313734     -0.336100      0.612859
   O      0.075433     -1.145319      4.412764
   O     -0.217108      1.037019      5.052101
   C      0.138631      0.105980      4.281684
   H      0.596932      0.456227      3.295482
