    8
 0014.xyz Energy 0.104099
   O     -0.588589     -0.138901     -0.989790
   O      0.859007      0.058678      0.777231
   C     -0.264607      0.078500      0.207999
   H     -1.139412      0.337998      0.895520
   O      0.038012      0.305024      6.238449
   O     -0.007875      0.044529      3.960958
   C     -0.029490     -0.342047      5.159715
   H     -0.126976     -1.472772      5.291109
