    8
 0018.xyz Energy 0.105629
   O     -0.192461     -1.142088     -0.063296
   O     -0.136139      1.150018     -0.065941
   C      0.321543     -0.007753      0.126462
   H      1.384497     -0.033490      0.544521
   O      0.561947     -0.048021      5.593569
   O     -0.397811      0.360410      3.551762
   C     -0.160614     -0.305680      4.594348
   H     -0.691526     -1.316214      4.641876
