    8
 0019.xyz Energy 0.100737
   O     -0.549870     -0.457797     -0.912950
   O      0.607986      0.116125      0.980965
   C     -0.056864      0.334336     -0.066549
   H     -0.244899      1.439556     -0.286633
   O     -0.686956     -0.381170      4.366645
   O      0.721821      0.033875      6.127332
   C     -0.034112      0.339838      5.167187
   H     -0.146946      1.463255      4.992517
