    8
 0021.xyz Energy 0.0967751
   O     -0.609702     -0.840546      0.516874
   O      0.708451      0.569451     -0.720588
   C     -0.096624      0.265278      0.199335
   H     -0.416106      1.142165      0.858355
   O      0.757109      0.854853      4.296468
   O     -0.727534     -0.729766      5.032503
   C     -0.028944     -0.122405      4.178096
   H     -0.124557     -0.526979      3.113913
