    8
 0023.xyz Energy 0.100118
   O      0.292349      0.110535     -1.117017
   O     -0.154029      0.214202      1.129520
   C     -0.135351     -0.317763     -0.012228
   H     -0.582771     -1.368229     -0.052757
   O      0.030500     -0.258537      6.830328
   O      0.009982     -0.091364      4.543723
   C     -0.039613      0.342388      5.725385
   H     -0.170564      1.474244      5.809410
