    8
 0026.xyz Energy 0.113935
   O     -0.294046      0.139211      1.113360
   O      0.501104     -0.387744     -0.971583
   C     -0.202609      0.243195     -0.138739
   H     -0.872431      1.047174     -0.597284
   O      0.179765      1.101836      3.985270
   O     -0.398968     -0.944394      4.842557
   C      0.214494     -0.154067      4.077068
   H      0.923595     -0.663285      3.340062
