    8
 0027.xyz Energy 0.103591
   O      0.260389      0.067785     -1.128280
   O     -0.538566     -0.242344      0.998319
   C      0.272201      0.170809      0.127177
   H      1.172078      0.735483      0.547498
   O      0.716613      0.799815      4.141622
   O     -0.780704     -0.538814      5.247536
   C      0.062711     -0.255400      4.355766
   H      0.270089     -1.099639      3.614442
