    8
 0028.xyz Energy 0.10075
   O      0.495225      0.032632     -1.048380
   O     -0.454217     -0.379718      0.997459
   C     -0.040130      0.339631      0.049833
   H     -0.172746      1.462401      0.214477
   O     -0.271181     -0.298600      4.412474
   O      0.087910      0.004685      6.656578
   C      0.179337      0.287605      5.432437
   H      0.772170      1.238353      5.208981
