    8
 0029.xyz Energy 0.0997468
   O      0.164570      0.887422     -0.728569
   O     -0.458150     -0.704374      0.799612
   C      0.287274     -0.179122     -0.069514
   H      1.236971     -0.771188     -0.299383
   O     -0.164041      0.620928      6.445895
   O      0.208790     -0.297857      4.378586
   C     -0.043787     -0.316136      5.612603
   H     -0.188557     -1.361175      6.051057
