    8
 0031.xyz Energy 0.122215
   O      0.543769     -0.853843     -0.566287
   O     -0.467685      0.646475      0.841882
   C     -0.074453      0.202920     -0.269673
   H     -0.320531      0.873661     -1.161221
   O     -0.889221     -0.597336      4.264849
   O      0.736521      0.857275      3.559154
   C      0.149426     -0.254353      3.639946
   H      0.643320     -1.095261      3.044759
