    8
 0034.xyz Energy 0.10356
   O      0.354970     -0.592211      0.932038
   O     -0.433178      0.830863     -0.683701
   C      0.076527     -0.233523     -0.243010
   H      0.329546     -1.005568     -1.046274
   O     -0.857076      0.559703      5.545497
   O      1.020775     -0.251702      4.510013
   C     -0.160178     -0.301389      4.945680
   H     -0.689783     -1.297680      4.766156
