    8
 0035.xyz Energy 0.144093
   O     -1.015754     -0.499909     -0.252483
   O      0.958754      0.335692      0.559934
   C      0.055782      0.160694     -0.300847
   H      0.240094      0.691876     -1.295423
   O     -0.711893      0.660822      2.706015
   O      0.619014     -0.899670      3.730946
   C      0.090888      0.233715      3.577823
   H      0.391283      1.006401      4.363968
