    8
 0042.xyz Energy 0.457683
   O      0.159000      0.017000      1.149000
   O      0.183000      0.072000     -1.143000
   C     -0.334000     -0.087000     -0.006000
   H     -1.440000     -0.376000     -0.024000
   O     -0.046600     -0.368200      2.349400
   O      0.839400      1.573800      3.186400
   C      0.136400      0.528800      3.215400
   H     -0.431600      0.366800      4.193400
