   12
 0005.xyz Energy 0.0816069
   N     -0.587573     -0.586050     -0.930717
   C      0.240481      0.460230     -0.233850
   H     -0.679303     -0.368939     -1.937434
   H     -1.536407     -0.632903     -0.522996
   H     -0.150403     -1.518489     -0.840288
   H     -0.259858      1.419813     -0.396425
   H      1.213667      0.477373     -0.734025
   C      0.439522      0.230908      1.275177
   H     -0.521341      0.219625      1.795481
   H      1.049297      1.031292      1.701582
   H      0.946496     -0.719476      1.459178
  Li      0.000000      0.000000      5.740000
