   12
 0007.xyz Energy 0.128351
   N     -0.134432     -1.238168      0.061643
   C      0.133521      0.114713     -0.541610
   H     -0.045369     -1.980879     -0.652133
   H     -1.089827     -1.280858      0.454220
   H      0.536756     -1.439104      0.821820
   H     -0.586933      0.247007     -1.354639
   H      1.142719      0.078114     -0.963201
   C      0.026610      1.295429      0.440146
   H     -0.977907      1.355489      0.866100
   H      0.235382      2.235798     -0.075977
   H      0.745162      1.187105      1.256271
  Li      0.000000      0.000000      3.600000
