   12
 0010.xyz Energy 0.123757
   N     -0.285935      0.192230      1.198424
   C     -0.118727      0.488271     -0.268000
   H     -0.660985      1.016504      1.697362
   H      0.620867     -0.059035      1.626554
   H     -0.939842     -0.595829      1.340224
   H      0.555336      1.347131     -0.342621
   H     -1.104443      0.775909     -0.646402
   C      0.435940     -0.677675     -1.106023
   H      1.425392     -0.974614     -0.749777
   H      0.525319     -0.380562     -2.153876
   H     -0.228103     -1.543854     -1.052230
  Li      0.000000      0.000000      5.060000
