   12
 0011.xyz Energy 0.0790882
   N      0.125922     -0.015385     -1.240499
   C      0.164440      0.519315      0.166132
   H      0.448263      0.700897     -1.912857
   H     -0.835601     -0.292303     -1.500322
   H      0.737319     -0.843778     -1.333760
   H     -0.474429      1.407614      0.184635
   H      1.198232      0.820669      0.361120
   C     -0.297614     -0.471580      1.249645
   H     -1.332324     -0.778384      1.078338
   H     -0.238395     -0.006437      2.236760
   H      0.333976     -1.363313      1.254010
  Li      0.000000      0.000000      5.960000
