   12
 0012.xyz Energy 0.0816904
   N     -0.768600      0.078534     -0.978783
   C      0.492272     -0.199889     -0.205039
   H     -0.639774     -0.144290     -1.980174
   H     -1.032738      1.075006     -0.901361
   H     -1.551894     -0.492448     -0.619383
   H      1.281538      0.409170     -0.656345
   H      0.728683     -1.257563     -0.356683
   C      0.407646      0.099246      1.302516
   H      0.181182      1.154073      1.476168
   H      1.360074     -0.129721      1.786992
   H     -0.369827     -0.506294      1.774710
  Li      0.000000      0.000000      5.720000
