   12
 0015.xyz Energy 0.111164
   N      0.234053      1.151187     -0.418232
   C     -0.521896      0.020605      0.227000
   H     -0.326290      2.020024     -0.405287
   H      0.458485      0.926632     -1.402063
   H      1.120328      1.331377      0.082555
   H     -1.457078     -0.093245     -0.329816
   H     -0.752668      0.337637      1.248662
   C      0.226150     -1.324269      0.260269
   H      0.458231     -1.663755     -0.752148
   H     -0.389551     -2.087003      0.743396
   H      1.160198     -1.234427      0.820263
  Li      0.000000      0.000000      4.120000
