   12
 0024.xyz Energy 0.121321
   N      0.040335      0.384029      1.185675
   C      0.542444     -0.068426     -0.159379
   H      0.829709      0.568459      1.827472
   H     -0.561312     -0.339473      1.613792
   H     -0.512606      1.252941      1.096307
   H      1.142004     -0.967581      0.012719
   H      1.193337      0.726122     -0.536991
   C     -0.556530     -0.370890     -1.193854
   H     -1.213021     -1.169392     -0.839575
   H     -0.108700     -0.690746     -2.137996
   H     -1.162084      0.517976     -1.387070
  Li      0.000000      0.000000      5.160000
