   12
 0025.xyz Energy 0.116127
   N     -0.424848      0.395967      1.103470
   C     -0.358933      0.210344     -0.388910
   H     -1.237737      0.979483      1.363759
   H      0.430442      0.860093      1.452445
   H     -0.515943     -0.515977      1.581798
   H     -0.296565      1.210030     -0.829714
   H     -1.302871     -0.253408     -0.691359
   C      0.819581     -0.646873     -0.884543
   H      1.773406     -0.195647     -0.600445
   H      0.793009     -0.731747     -1.973741
   H      0.771002     -1.653619     -0.462389
  Li      0.000000      0.000000      5.240000
