   12
 0032.xyz Energy 0.117488
   N      0.045533     -0.382774      1.185893
   C      0.272816     -0.398297     -0.302092
   H      0.461042     -1.220009      1.627954
   H     -0.965495     -0.372312      1.401370
   H      0.475802      0.454650      1.612892
   H     -0.177090     -1.320967     -0.681347
   H      1.355465     -0.441318     -0.455652
   C     -0.308547      0.808922     -1.059725
   H     -1.391738      0.864820     -0.926787
   H     -0.099908      0.719995     -2.128754
   H      0.134937      1.741277     -0.701748
  Li      0.000000      0.000000      5.280000
