   12
 0034.xyz Energy 0.0773978
   N      0.440286     -0.298889     -1.127716
   C      0.242450     -0.365703      0.363054
   H      1.101125     -1.029364     -1.441926
   H      0.820746      0.621389     -1.405307
   H     -0.456352     -0.440611     -1.622381
   H      1.229373     -0.241150      0.819169
   H     -0.128822     -1.370354      0.587539
   C     -0.727345      0.683185      0.936377
   H     -0.369581      1.695034      0.730788
   H     -0.814122      0.565192      2.019340
   H     -1.722716      0.570207      0.499817
  Li      0.000000      0.000000      6.140000
