    2
 0005.xyz Energy -0.00949722
  Li      0.000000      0.000000      0.000000
   F      0.000000      0.000000     55.719333
