    2
 0006.xyz Energy -0.00807687
  Li      0.000000      0.000000      0.000000
   F      0.000000      0.000000     65.517667
