    2
 0012.xyz Energy -0.263804
  Li      0.000000      0.000000     -1.144000
   F      0.000000      0.000000      0.857000
