    2
 0017.xyz Energy -0.278023
  Li      0.000000      0.000000     -1.144000
   F      0.000000      0.000000      0.683000
