    2
 0020.xyz Energy -0.287607
  Li      0.000000      0.000000     -1.144000
   F      0.000000      0.000000      0.390100
