    2
 0021.xyz Energy -0.262229
  Li      0.000000      0.000000     -1.144000
   F      0.000000      0.000000      0.195800
