    2
 0024.xyz Energy -0.253741
  Li      0.000000      0.000000     -1.144000
   F      0.000000      0.000000      0.970100
