    2
 0026.xyz Energy -0.232957
  Li      0.000000      0.000000     -1.144000
   F      0.000000      0.000000      1.205000
