    2
 0034.xyz Energy -0.132766
  Li      0.000000      0.000000     -1.144000
   F      0.000000      0.000000     -5.233000
