    2
 0036.xyz Energy -0.0989034
  Li      0.000000      0.000000     -1.144000
   F      0.000000      0.000000     -6.546700
