    2
 0040.xyz Energy -0.0629976
  Li      0.000000      0.000000     -1.144000
   F      0.000000      0.000000     -9.556900
