    2
 0048.xyz Energy -0.0331526
  Li      0.000000      0.000000     -1.144000
   F      0.000000      0.000000    -17.108500
