    2
 0056.xyz Energy -0.020706
  Li      0.000000      0.000000     -1.144000
   F      0.000000      0.000000    -26.701700
