    2
 0058.xyz Energy -0.0187159
  Li      0.000000      0.000000     -1.144000
   F      0.000000      0.000000    -29.419000
