    2
 0059.xyz Energy -0.017829
  Li      0.000000      0.000000     -1.144000
   F      0.000000      0.000000    -30.825500
