    2
 0061.xyz Energy -0.0162376
  Li      0.000000      0.000000     -1.144000
   F      0.000000      0.000000    -33.734200
