    2
 0063.xyz Energy -0.0148537
  Li      0.000000      0.000000     -1.144000
   F      0.000000      0.000000    -36.770500
