    2
 0078.xyz Energy -0.0753363
  Li      0.000000      0.000000     -1.144000
   F      0.000000      0.000000     -8.191000
