    2
 0081.xyz Energy -0.0479594
  Li      0.000000      0.000000     -1.144000
   F      0.000000      0.000000    -12.184300
