    2
 0082.xyz Energy -0.0422552
  Li      0.000000      0.000000     -1.144000
   F      0.000000      0.000000    -13.672000
