    2
 0084.xyz Energy -0.0336293
  Li      0.000000      0.000000     -1.144000
   F      0.000000      0.000000    -16.882300
