    2
 0085.xyz Energy -0.0303102
  Li      0.000000      0.000000     -1.144000
   F      0.000000      0.000000    -18.604900
