    2
 0087.xyz Energy -0.0250326
  Li      0.000000      0.000000     -1.144000
   F      0.000000      0.000000    -22.285000
