    2
 0089.xyz Energy -0.0210549
  Li      0.000000      0.000000     -1.144000
   F      0.000000      0.000000    -26.278300
