    2
 0090.xyz Energy -0.0194211
  Li      0.000000      0.000000     -1.144000
   F      0.000000      0.000000    -28.392400
