    2
 0096.xyz Energy -0.0127277
  Li      0.000000      0.000000     -1.144000
   F      0.000000      0.000000    -42.721300
