    2
 0097.xyz Energy -0.0119617
  Li      0.000000      0.000000     -1.144000
   F      0.000000      0.000000    -45.383500
