    2
 0098.xyz Energy -0.0112639
  Li      0.000000      0.000000     -1.144000
   F      0.000000      0.000000    -48.124000
