    2
 0099.xyz Energy -0.0106264
  Li      0.000000      0.000000     -1.144000
   F      0.000000      0.000000    -50.942800
