    2
 0102.xyz Energy -0.00901113
  Li      0.000000      0.000000     -1.144000
   F      0.000000      0.000000    -59.869000
