    2
 0108.xyz Energy -0.269602
  Li      0.000000      0.000000     -1.144000
   F      0.000000      0.000000      0.789531
