    2
 0111.xyz Energy -0.287427
  Li      0.000000      0.000000     -1.144000
   F      0.000000      0.000000      0.511486
