    2
 0112.xyz Energy -0.284625
  Li      0.000000      0.000000     -1.144000
   F      0.000000      0.000000      0.335710
