    2
 0115.xyz Energy 1.18352
  Li      0.000000      0.000000     -1.144000
   F      0.000000      0.000000     -0.440898
