    2
 0116.xyz Energy 6.77353
  Li      0.000000      0.000000     -1.144000
   F      0.000000      0.000000     -0.782861
