    2
 0122.xyz Energy -0.215275
  Li      0.000000      0.000000     -1.144000
   F      0.000000      0.000000     -3.707127
