    2
 0125.xyz Energy -0.117469
  Li      0.000000      0.000000     -1.144000
   F      0.000000      0.000000     -5.730143
