    2
 0130.xyz Energy -0.0602887
  Li      0.000000      0.000000     -1.144000
   F      0.000000      0.000000     -9.932776
