    2
 0131.xyz Energy -0.054301
  Li      0.000000      0.000000     -1.144000
   F      0.000000      0.000000    -10.897943
