    2
 0132.xyz Energy -0.0492084
  Li      0.000000      0.000000     -1.144000
   F      0.000000      0.000000    -11.904657
