    2
 0137.xyz Energy -0.0322375
  Li      0.000000      0.000000     -1.144000
   F      0.000000      0.000000    -17.561433
