    2
 0139.xyz Energy -0.0278968
  Li      0.000000      0.000000     -1.144000
   F      0.000000      0.000000    -20.114971
