    2
 0141.xyz Energy -0.0243981
  Li      0.000000      0.000000     -1.144000
   F      0.000000      0.000000    -22.834698
