    2
 0143.xyz Energy -0.0215327
  Li      0.000000      0.000000     -1.144000
   F      0.000000      0.000000    -25.720612
