    2
 0145.xyz Energy -0.0191537
  Li      0.000000      0.000000     -1.144000
   F      0.000000      0.000000    -28.772714
