    2
 0147.xyz Energy -0.0171553
  Li      0.000000      0.000000     -1.144000
   F      0.000000      0.000000    -31.991004
