    2
 0148.xyz Energy -0.0162734
  Li      0.000000      0.000000     -1.144000
   F      0.000000      0.000000    -33.662469
