    2
 0149.xyz Energy -0.015459
  Li      0.000000      0.000000     -1.144000
   F      0.000000      0.000000    -35.375482
