    2
 0605.xyz Energy -0.26292
  Li      0.000000      0.000000     -1.144000
   F      0.000000      0.000000      0.867074
