    2
 0611.xyz Energy -0.238525
  Li      0.000000      0.000000     -1.144000
   F      0.000000      0.000000      0.125284
