   14
 0006.xyz Energy 0.0880556
   C     -1.864000     -0.383000      0.652000
   C     -3.310000     -0.490000      1.074000
   O     -4.032000     -1.197000      0.242000
   O     -3.814000      0.215000      1.926000
   H     -1.779000      0.174000     -0.284000
   H     -1.277000      0.128000      1.418000
   H     -1.437000     -1.376000      0.497000
   C      3.525568     -0.554253      0.356316
   C      2.029568     -0.469253      0.544316
   O      1.405568      0.223747     -0.233684
   O      1.541568     -1.113253      1.449316
   H      3.910568      0.375747     -0.069684
   H      4.021568     -0.728253      1.313316
   H      3.768568     -1.376253     -0.319684
