   14
 0012.xyz Energy 0.931284
   C     -1.864000     -0.383000      0.652000
   C     -3.310000     -0.490000      1.074000
   O     -4.032000     -1.197000      0.242000
   O     -3.814000      0.215000      1.926000
   H     -1.779000      0.174000     -0.284000
   H     -1.277000      0.128000      1.418000
   H     -1.437000     -1.376000      0.497000
   C      1.189168     -0.760353     -0.390684
   C     -0.306832     -0.675353     -0.202684
   O     -0.930832      0.017647     -0.980684
   O     -0.794832     -1.319353      0.702316
   H      1.574168      0.169647     -0.816684
   H      1.685168     -0.934353      0.566316
   H      1.432168     -1.582353     -1.066684
