   14
 0023.xyz Energy 0.096358
   C      0.867043      1.060977      0.489273
   C     -0.071021     -0.083332     -0.033064
   O     -0.891576     -0.592597      0.823767
   O      0.086271     -0.393462     -1.278870
   H      0.669643      1.281998      1.545336
   H      1.916372      0.756031      0.361204
   H      0.711555      1.964510     -0.118671
   C     -1.130674     -0.847172      5.227418
   C      0.092329      0.063279      4.856492
   O      1.181661     -0.135641      5.520273
   O     -0.131350      0.923317      3.916674
   H     -0.866451     -1.560412      6.017710
   H     -1.966304     -0.213527      5.560139
   H     -1.466369     -1.388310      4.330410
