   14
 0036.xyz Energy 0.0854852
   C     -0.640699      1.306247     -0.006820
   C      0.049332     -0.102980      0.006552
   O      0.227575     -0.646873      1.163803
   O      0.368070     -0.566850     -1.158003
   H     -0.896514      1.630135      1.009419
   H      0.037178      2.037159     -0.472369
   H     -1.548869      1.260526     -0.625917
   C     -0.582598      1.025120      4.967632
   C      0.048358     -0.083039      5.882028
   O      0.673435     -1.039595      5.281112
   O     -0.132456      0.087117      7.151402
   H     -0.378319      0.826365      3.908456
   H     -1.668913      1.060493      5.138373
   H     -0.173959      2.006391      5.250945
