   14
 0052.xyz Energy 0.089207
   C      1.320144      0.484723      0.372944
   C     -0.101227     -0.043474     -0.030732
   O     -0.149677     -1.217440     -0.565780
   O     -1.077286      0.767583      0.219170
   H      2.095693     -0.257461      0.147614
   H      1.527469      1.418539     -0.170644
   H      1.328352      0.721798      1.447129
   C     -0.934433     -0.853585      6.277671
   C      0.074431      0.070139      5.508795
   O      0.554428      1.072480      6.165861
   O      0.313658     -0.279448      4.286700
   H     -1.078322     -0.508606      7.308870
   H     -1.898318     -0.857831      5.747207
   H     -0.555095     -1.886177      6.276867
