   14
 0077.xyz Energy 0.0916375
   C      0.874821      1.160500     -0.068920
   C     -0.071311     -0.088812      0.010423
   O     -0.830531     -0.172078      1.051322
   O      0.017974     -0.906645     -0.987642
   H      0.735958      1.816553      0.799065
   H      1.920183      0.820812     -0.117044
   H      0.667311      1.715447     -0.995806
   C      0.162962      1.244671      7.015569
   C     -0.012952     -0.094583      6.217010
   O     -0.228046      0.014248      4.948661
   O      0.076430     -1.171158      6.928315
   H      0.090975      2.113489      6.349942
   H     -0.611082      1.306051      7.795039
   H      1.139251      1.240154      7.522504
