   14
 0088.xyz Energy 0.099894
   C     -0.362055      1.402518      0.136683
   C      0.030599     -0.110090     -0.005022
   O      0.692993     -0.628176      0.974591
   O     -0.356577     -0.675083     -1.102216
   H     -0.016719      1.811959      1.093860
   H      0.080893      1.971205     -0.694507
   H     -1.454622      1.503478      0.057629
   C     -0.881333     -1.157423      4.758849
   C      0.065982      0.093378      4.777110
   O     -0.117747      0.969594      3.846890
   O      0.937161      0.105632      5.733066
   H     -1.602045     -1.094717      3.934393
   H     -0.274923     -2.069704      4.656398
   H     -1.414238     -1.223951      5.718917
