   14
 0089.xyz Energy 0.0776565
   C     -0.802825     -0.168635      1.201606
   C      0.063413      0.019233     -0.093222
   O      0.351706      1.233702     -0.423031
   O      0.394130     -1.077535     -0.693790
   H     -1.032953      0.797933      1.666228
   H     -1.736210     -0.689390      0.940663
   H     -0.258983     -0.807177      1.913396
   C      1.421867     -0.299653      5.747017
   C     -0.112451      0.020882      5.820285
   O     -0.809482     -0.251972      4.768372
   O     -0.511698      0.530854      6.939877
   H      1.686859     -0.742223      4.779031
   H      1.993499      0.627381      5.902998
   H      1.688319     -0.990123      6.560896
