   14
 0100.xyz Energy 0.0873661
   C      0.342646      1.410138      0.104529
   C     -0.028762     -0.109816     -0.013956
   O     -0.627060     -0.474458     -1.098343
   O      0.308646     -0.835979      1.001819
   H      0.042301      1.961144     -0.795067
   H     -0.155437      1.837012      0.987806
   H      1.427212      1.508337      0.260152
   C      1.190655     -0.793462      6.423783
   C     -0.092418      0.065541      6.144355
   O     -0.430062      0.912127      7.058745
   O     -0.676580     -0.175228      5.015754
   H      1.641782     -0.527174      7.387454
   H      0.920573     -1.860009      6.419698
   H      1.917267     -0.636043      5.612981
