   14
 0104.xyz Energy 0.086269
   C      0.811263      1.187013      0.222879
   C     -0.067072     -0.090104     -0.021542
   O     -1.099691      0.057111     -0.782361
   O      0.346013     -1.160397      0.575776
   H      0.413036      2.050497     -0.323836
   H      0.838401      1.407246      1.300491
   H      1.844248      0.984437     -0.096573
   C     -0.224872     -1.253387      4.136241
   C      0.020539      0.095370      4.899701
   O      0.547336      0.005220      6.074936
   O     -0.338815      1.159774      4.258713
   H      0.115929     -2.110546      4.729723
   H     -1.297967     -1.354734      3.915604
   H      0.306931     -1.228237      3.173591
