   14
 0112.xyz Energy 0.11357
   C      0.901108      0.877446     -0.731380
   C     -0.069014     -0.073573      0.053904
   O     -0.188016     -1.277019     -0.398175
   O     -0.649660      0.462128      1.078028
   H      1.368674      0.355156     -1.574992
   H      0.337106      1.748321     -1.097391
   H      1.675789      1.252705     -0.046403
   C     -1.079939      0.421766      5.619016
   C      0.087940     -0.028100      4.672484
   O      1.057387      0.809750      4.514371
   O     -0.054222     -1.202061      4.148499
   H     -0.886920      1.416600      6.038701
   H     -2.022547      0.432076      5.051681
   H     -1.193553     -0.312276      6.430446
