   14
 0115.xyz Energy 0.0720696
   C      0.313703      1.109757      0.887047
   C     -0.024938     -0.083252     -0.074355
   O     -0.325896      0.224521     -1.291532
   O      0.034221     -1.256120      0.467713
   H      0.259207      2.069725      0.359242
   H     -0.392354      1.106723      1.730825
   H      1.322120      0.966748      1.302723
   C     -0.034523      1.239595      5.719056
   C      0.000609     -0.100351      6.534871
   O     -0.495866     -1.141652      5.955195
   O      0.527962     -0.009940      7.712446
   H     -0.479085      1.086800      4.728044
   H     -0.615334      1.988702      6.277610
   H      0.989069      1.628979      5.615210
