   14
 0160.xyz Energy 0.0936557
   C     -1.296622      0.623602     -0.216140
   C      0.104424     -0.044661      0.013513
   O      1.094921      0.449431     -0.651023
   O      0.109706     -1.029442      0.852043
   H     -1.224607      1.458001     -0.924433
   H     -1.999801     -0.131315     -0.598404
   H     -1.690937      0.981431      0.746470
   C     -1.254773     -0.602882      4.797034
   C      0.098916      0.050220      5.247839
   O      0.732034      0.738130      4.357467
   O      0.434042     -0.178320      6.476015
   H     -1.483667     -0.356202      3.753079
   H     -1.188010     -1.694505      4.916984
   H     -2.064769     -0.249873      5.452347
