   14
 0163.xyz Energy 0.0860193
   C      0.501631      0.907237      1.020838
   C     -0.036877     -0.067719     -0.084473
   O      0.134228      0.299377     -1.310354
   O     -0.600781     -1.142669      0.362126
   H      0.979252      1.786986      0.572498
   H     -0.333537      1.222579      1.663907
   H      1.222067      0.372674      1.657515
   C     -0.517743     -1.037215      3.780824
   C      0.039206      0.085661      4.724858
   O      0.082290      1.280261      4.237115
   O      0.399145     -0.316836      5.900187
   H     -0.816979     -0.624037      2.809830
   H      0.255717     -1.806381      3.637194
   H     -1.378527     -1.523729      4.263005
