   14
 0172.xyz Energy 0.0656532
   C      0.537992      0.619551      1.201476
   C     -0.037881     -0.045942     -0.097652
   O      0.497656      0.313873     -1.215934
   O     -0.998124     -0.889700      0.099733
   H      1.356292      1.309576      0.962023
   H     -0.267940      1.161008      1.718954
   H      0.896481     -0.165354      1.883792
   C     -0.011118     -0.272845      5.010925
   C      0.006813      0.020010      6.552404
   O      1.101930     -0.254138      7.178806
   O     -1.092210      0.507630      7.029198
   H      0.954414     -0.668715      4.673104
   H     -0.809814     -0.996207      4.788847
   H     -0.247604      0.653926      4.467498
