   14
 0181.xyz Energy 0.0722427
   C      1.343857     -0.372992     -0.414425
   C     -0.103559      0.029833      0.038300
   O     -0.294317      0.163736      1.308143
   O     -0.954709      0.182630     -0.923549
   H      2.014499     -0.470145      0.448064
   H      1.299937     -1.325842     -0.962726
   H      1.732513      0.387044     -1.108281
   C      0.408361      1.009518      6.075148
   C     -0.032715     -0.083301      7.111219
   O     -0.433526     -1.210274      6.625316
   O      0.053926      0.272605      8.351695
   H      0.324057      0.635875      5.047349
   H     -0.221350      1.902928      6.200714
   H      1.446668      1.308434      6.281816
