   14
 0184.xyz Energy 0.0987187
   C      0.638088     -1.211101      0.492850
   C     -0.054840      0.094077     -0.034979
   O     -1.255648      0.318783      0.382617
   O      0.663058      0.806641     -0.841100
   H     -0.019409     -1.756478      1.180853
   H      0.899975     -1.853097     -0.361400
   H      1.575896     -0.944320      1.002249
   C      1.066171      0.977823      4.445191
   C     -0.084743     -0.074718      4.617814
   O     -0.621606     -0.155331      5.789180
   O     -0.368920     -0.753650      3.554211
   H      1.243177      1.525822      5.378707
   H      1.986522      0.460735      4.135255
   H      0.798658      1.680701      3.642356
