   14
 0188.xyz Energy 0.0940611
   C      0.009723      1.208147      0.810624
   C      0.001683     -0.091733     -0.068291
   O      0.347249      0.045892     -1.304601
   O     -0.356697     -1.168830      0.551695
   H      0.336960      2.077247      0.226956
   H     -1.001451      1.383650      1.207121
   H      0.678556      1.060825      1.671497
   C      0.316033      1.340235      5.929805
   C     -0.023277     -0.103576      5.417436
   O      0.026090     -0.288869      4.140703
   O     -0.320100     -0.956664      6.343230
   H      0.572260      2.004964      5.095797
   H     -0.549447      1.743350      6.476550
   H      1.155658      1.286550      6.638531
