   12
 0000.xyz Energy 0.10273
   N      0.610560     -1.076886     -0.149877
   C     -0.016806      0.091847      0.561792
   H      1.032420     -1.733993      0.527820
   H      1.353036     -0.757072     -0.794212
   H     -0.096343     -1.591698     -0.701235
   H      0.775555      0.568324      1.147201
   H     -0.765556     -0.319794      1.245521
   C     -0.676208      1.134164     -0.359147
   H      0.057619      1.564915     -1.044750
   H     -1.105665      1.944839      0.234684
   H     -1.477632      0.680037     -0.947024
   K      0.000000      0.000000      4.720000
