   12
 0001.xyz Energy 0.092015
   N     -0.828922      0.592436     -0.718915
   C     -0.045561      0.236238      0.516183
   H     -1.497495      1.355721     -0.520333
   H     -1.363321     -0.223675     -1.061114
   H     -0.197247      0.905423     -1.475065
   H     -0.773647     -0.052809      1.280324
   H      0.466144      1.147984      0.839350
   C      0.982454     -0.894003      0.328810
   H      0.490052     -1.817531      0.014585
   H      1.505303     -1.088529      1.268517
   H      1.725129     -0.621315     -0.424971
   K      0.000000      0.000000      5.100000
