   12
 0003.xyz Energy 0.0816582
   N     -0.255434      1.197729     -0.234800
   C      0.427777     -0.138716     -0.349418
   H      0.157429      1.877271     -0.895705
   H     -0.157671      1.577650      0.721662
   H     -1.263546      1.112568     -0.447390
   H      1.489509      0.030059     -0.144940
   H      0.312959     -0.463936     -1.387979
   C     -0.113277     -1.226976      0.595208
   H      0.000638     -0.925413      1.639327
   H      0.434314     -2.161173      0.447964
   H     -1.171655     -1.417410      0.401092
   K      0.000000      0.000000      6.100000
