   12
 0005.xyz Energy 0.0854014
   N     -0.395437     -0.472269      1.084215
   C      0.047725     -0.443461     -0.354109
   H     -0.617009     -1.438136      1.379232
   H     -1.240502      0.107918      1.218255
   H      0.348147     -0.108356      1.703399
   H     -0.768663     -0.869448     -0.945391
   H      0.920618     -1.099246     -0.428703
   C      0.403248      0.952916     -0.895497
   H     -0.459036      1.621731     -0.838484
   H      0.713908      0.884743     -1.941014
   H      1.223829      1.392936     -0.323535
   K      0.000000      0.000000      6.900000
