   12
 0006.xyz Energy 0.073079
   N     -1.033874      0.654749     -0.239457
   C      0.432613      0.318878     -0.188393
   H     -1.182158      1.579171     -0.678189
   H     -1.436436      0.681044      0.712368
   H     -1.551664     -0.050511     -0.790128
   H      0.920772      1.118003      0.377884
   H      0.797428      0.339997     -1.219908
   C      0.764503     -1.042418      0.448859
   H      0.416277     -1.080960      1.483921
   H      1.844776     -1.207526      0.445704
   H      0.293164     -1.856108     -0.107791
   K      0.000000      0.000000      6.900000
