   12
 0007.xyz Energy 0.0824099
   N     -0.010761     -0.327713     -1.203087
   C     -0.105793     -0.477515      0.291746
   H     -0.166918     -1.235785     -1.672182
   H      0.923205      0.020609     -1.477127
   H     -0.719476      0.340463     -1.549501
   H      0.645257     -1.217844      0.583994
   H     -1.101598     -0.877397      0.506282
   C      0.111854      0.821120      1.088955
   H      1.105607      1.232495      0.895752
   H      0.025862      0.625256      2.160638
   H     -0.634621      1.571816      0.818140
   K      0.000000      0.000000      5.680000
