   12
 0008.xyz Energy 0.102566
   N      0.500358      0.157871      1.131216
   C     -0.556104     -0.086533      0.087112
   H      0.086372      0.151736      2.078637
   H      0.955179      1.074451      0.983781
   H      1.228958     -0.574523      1.092750
   H     -1.306305      0.701347      0.205497
   H     -1.014454     -1.052150      0.321762
   C     -0.043482     -0.097425     -1.364255
   H      0.410388      0.862575     -1.622137
   H     -0.869949     -0.280944     -2.055293
   H      0.701384     -0.884266     -1.506266
   K      0.000000      0.000000      5.960000
