   12
 0011.xyz Energy 0.088442
   N      1.185969     -0.299294      0.242552
   C      0.011751      0.300938     -0.483350
   H      2.067767     -0.095986     -0.257576
   H      1.085406     -1.325622      0.315052
   H      1.261007      0.086566      1.198700
   H      0.011893     -0.124469     -1.491615
   H      0.199109      1.376965     -0.551353
   C     -1.355352      0.055829      0.180214
   H     -1.566230     -1.014142      0.249444
   H     -2.149523      0.523013     -0.407402
   H     -1.379643      0.481495      1.186360
   K      0.000000      0.000000      5.920000
