   12
 0013.xyz Energy 0.0786295
   N      0.352078     -0.948802      0.728523
   C      0.370910      0.009703     -0.432042
   H      1.128653     -1.627429      0.654856
   H     -0.536476     -1.476640      0.752573
   H      0.450971     -0.441258      1.623709
   H      0.295555     -0.593552     -1.341973
   H      1.345491      0.507154     -0.414867
   C     -0.748376      1.066298     -0.418945
   H     -1.731414      0.589798     -0.445115
   H     -0.661932      1.718832     -1.291291
   H     -0.685554      1.686285      0.478708
   K      0.000000      0.000000      7.120000
