   12
 0014.xyz Energy 0.110113
   N      0.322762     -1.194230      0.156748
   C     -0.289243      0.019406     -0.490194
   H      0.153124     -2.038379     -0.415672
   H     -0.083351     -1.353034      1.094070
   H      1.344319     -1.076235      0.262754
   H     -1.358456     -0.186012     -0.600454
   H      0.160218      0.107855     -1.484036
   C     -0.093501      1.335366      0.283952
   H     -0.544023      1.271210      1.277438
   H     -0.565289      2.162606     -0.252100
   H      0.969055      1.563880      0.397384
   K      0.000000      0.000000      4.560000
