   12
 0015.xyz Energy 0.107758
   N     -0.571079     -0.982906      0.512538
   C     -0.053851      0.424175      0.376170
   H     -1.063284     -1.105790      1.413462
   H      0.206029     -1.663592      0.473972
   H     -1.233262     -1.204660     -0.249746
   H      0.610913      0.600871      1.227309
   H     -0.919915      1.088159      0.457529
   C      0.698052      0.714665     -0.935174
   H      1.573219      0.067453     -1.031608
   H      1.037742      1.753189     -0.953619
   H      0.048145      0.552675     -1.798593
   K      0.000000      0.000000      5.020000
