   12
 0016.xyz Energy 0.0743673
   N      0.247313     -0.156169     -1.212179
   C     -0.134051     -0.516591      0.198727
   H      0.239870     -0.993823     -1.818240
   H      1.195534      0.254630     -1.241168
   H     -0.415621      0.532630     -1.605640
   H      0.585207     -1.267960      0.538850
   H     -1.127992     -0.971919      0.150579
   C     -0.154061      0.663475      1.186861
   H      0.832973      1.127129      1.256789
   H     -0.439866      0.316994      2.183118
   H     -0.873697      1.422239      0.869824
   K      0.000000      0.000000      6.380000
