   12
 0018.xyz Energy 0.0857672
   N     -0.747096     -0.250353      0.966489
   C      0.485054      0.195450      0.225501
   H     -0.612697     -0.159113      1.987587
   H     -0.962365     -1.239435      0.756499
   H     -1.563901      0.322759      0.696100
   H      1.311275     -0.427499      0.581679
   H      0.670827      1.233576      0.517637
   C      0.390071      0.099689     -1.307853
   H      0.213717     -0.932118     -1.621500
   H      1.321556      0.441323     -1.765982
   H     -0.424551      0.722602     -1.685321
   K      0.000000      0.000000      6.820000
