   12
 0019.xyz Energy 0.078424
   N     -1.082568      0.618316      0.025737
   C      0.228653      0.066061      0.517380
   H     -1.552070      1.162089      0.769315
   H     -1.715734     -0.145854     -0.263853
   H     -0.935652      1.241554     -0.785883
   H      0.003445     -0.553919      1.390579
   H      0.832400      0.921742      0.834967
   C      1.011744     -0.763091     -0.516370
   H      0.429156     -1.629033     -0.840155
   H      1.946722     -1.124149     -0.080808
   H      1.254824     -0.158920     -1.393867
   K      0.000000      0.000000      6.580000
