   12
 0021.xyz Energy 0.0997792
   N     -1.226714      0.172292     -0.142895
   C      0.126338     -0.469179     -0.297050
   H     -1.944789     -0.359352     -0.663233
   H     -1.216023      1.140310     -0.505585
   H     -1.505775      0.202868      0.852057
   H      0.342658     -0.497849     -1.369409
   H      0.033907     -1.494306      0.074610
   C      1.271502      0.246546      0.441669
   H      1.386803      1.270608      0.078209
   H      2.214235     -0.281681      0.278905
   H      1.079084      0.278098      1.516885
   K      0.000000      0.000000      4.900000
