   12
 0023.xyz Energy 0.0979931
   N      0.568822     -1.105560      0.095443
   C     -0.552381     -0.101119      0.094755
   H      0.209977     -2.053894      0.297736
   H      1.273092     -0.867074      0.813668
   H      1.040041     -1.128335     -0.824433
   H     -1.024266     -0.152897      1.080764
   H     -1.271389     -0.431097     -0.661356
   C     -0.124580      1.348367     -0.197379
   H      0.587549      1.700892      0.552753
   H     -0.994422      2.009674     -0.179740
   H      0.341606      1.423703     -1.182826
   K      0.000000      0.000000      5.180000
