   12
 0027.xyz Energy 0.066844
   N     -0.196121      0.713543     -1.003655
   C      0.551331     -0.141811     -0.015888
   H      0.433154      1.035420     -1.758267
   H     -0.594402      1.546414     -0.538449
   H     -0.971226      0.182265     -1.434578
   H      1.371351      0.468682      0.374542
   H      0.970041     -0.981637     -0.578857
   C     -0.296870     -0.675224      1.152612
   H     -0.717355      0.148909      1.734073
   H      0.318990     -1.284013      1.819211
   H     -1.117374     -1.295838      0.784206
   K      0.000000      0.000000      7.220000
