   12
 0029.xyz Energy 0.0903175
   N      1.078209     -0.273473     -0.563569
   C     -0.065993     -0.392506      0.407324
   H      1.772407     -1.022949     -0.404185
   H      1.555930      0.636987     -0.456034
   H      0.740527     -0.348341     -1.537788
   H      0.364432     -0.337767      1.411967
   H     -0.502231     -1.385398      0.260963
   C     -1.159976      0.679615      0.255251
   H     -0.746343      1.679587      0.407112
   H     -1.949522      0.520930      0.993964
   H     -1.609639      0.636037     -0.739744
   K      0.000000      0.000000      5.280000
