   12
 0030.xyz Energy 0.0764049
   N     -0.499879      0.087917     -1.139001
   C     -0.054956     -0.546155      0.151733
   H     -0.941685     -0.613057     -1.757444
   H      0.304851      0.499368     -1.640833
   H     -1.187360      0.838883     -0.959670
   H      0.641473     -1.347699     -0.113001
   H     -0.945604     -0.986114      0.610801
   C      0.618389      0.414644      1.148145
   H      1.516619      0.858426      0.711865
   H      0.908791     -0.123294      2.053988
   H     -0.064486      1.218860      1.432803
   K      0.000000      0.000000      6.180000
