   12
 0002.xyz Energy -0.108824
   N      0.793571     -0.867312     -0.415868
   C     -0.077040      0.360575     -0.434027
   H      1.264732     -0.994929     -1.327323
   H      0.230181     -1.712314     -0.222786
   H      1.520544     -0.789448      0.315012
   H     -0.797893      0.225432     -1.246232
   H      0.574760      1.206204     -0.674083
   C     -0.826983      0.643522      0.880086
   H     -1.491457     -0.186169      1.133437
   H     -1.432321      1.548091      0.782202
   H     -0.123896      0.790708      1.703565
  Br      0.000000      0.000000      4.720000
