   12
 0003.xyz Energy -0.112453
   N     -0.086305      0.724476     -1.011245
   C      0.271327      0.312023      0.391602
   H      0.230925      1.690177     -1.200497
   H     -1.109537      0.687220     -1.153816
   H      0.359393      0.097321     -1.701729
   H     -0.203872      1.032680      1.064217
   H      1.358018      0.405355      0.480771
   C     -0.157707     -1.115000      0.777481
   H     -1.242232     -1.226812      0.703970
   H      0.139073     -1.333361      1.806316
   H      0.313659     -1.851840      0.122507
  Br      0.000000      0.000000      4.480000
