   12
 0006.xyz Energy -0.122859
   N     -0.966767      0.207353     -0.759801
   C     -0.116146     -0.488334      0.269015
   H     -1.834913     -0.325442     -0.937229
   H     -0.456577      0.299992     -1.654140
   H     -1.229300      1.153987     -0.437778
   H      0.096075     -1.488932     -0.120004
   H     -0.725982     -0.580215      1.173016
   C      1.205208      0.224806      0.607874
   H      1.833942      0.318606     -0.280943
   H      1.759005     -0.343309      1.359416
   H      1.014963      1.224095      1.007048
  Br      0.000000      0.000000      4.020000
