   12
 0011.xyz Energy -0.10247
   N      0.310005     -0.874747     -0.832853
   C     -0.015889      0.490511     -0.288921
   H      0.514029     -0.825794     -1.845280
   H     -0.483689     -1.522559     -0.694620
   H      1.137316     -1.270607     -0.355789
   H     -0.874922      0.860684     -0.856903
   H      0.849110      1.127839     -0.496646
   C     -0.336458      0.529606      1.216095
   H     -1.204346     -0.094121      1.443771
   H     -0.560065      1.552789      1.528118
   H      0.513213      0.171781      1.802722
  Br      0.000000      0.000000      4.880000
