   12
 0018.xyz Energy -0.153119
   N      0.175673      0.192660      1.219407
   C     -0.102281      0.513111     -0.224910
   H      0.160464      1.052066      1.794053
   H      1.104545     -0.248928      1.323877
   H     -0.535503     -0.457961      1.593117
   H      0.663976      1.226283     -0.543981
   H     -1.080007      1.003604     -0.256959
   C     -0.102773     -0.701560     -1.170395
   H      0.869138     -1.200944     -1.160221
   H     -0.312160     -0.382856     -2.194527
   H     -0.868218     -1.422964     -0.874113
  Br      0.000000      0.000000      4.600000
