   12
 0021.xyz Energy -0.119893
   N     -0.450440      1.152850     -0.151568
   C      0.317094      0.018310      0.472700
   H     -0.334784      2.019683      0.400023
   H     -1.459168      0.931083     -0.196341
   H     -0.116498      1.335136     -1.112814
   H     -0.063008     -0.097696      1.492325
   H      1.364420      0.332453      0.517202
   C      0.211939     -1.323992     -0.273313
   H     -0.826586     -1.660604     -0.320833
   H      0.795783     -2.089865      0.243240
   H      0.595308     -1.232005     -1.292469
  Br      0.000000      0.000000      4.480000
