   12
 0024.xyz Energy -0.14721
   N     -0.582306      0.128210      1.095177
   C      0.167803     -0.543700     -0.023694
   H     -0.772009     -0.539920      1.861103
   H     -1.486922      0.498389      0.758491
   H     -0.034668      0.915202      1.481795
   H     -0.450834     -1.380797     -0.361519
   H      1.093213     -0.936994      0.408158
   C      0.501991      0.366659     -1.219073
   H     -0.410417      0.763098     -1.671234
   H      1.044554     -0.196433     -1.982496
   H      1.127704      1.205443     -0.904375
  Br      0.000000      0.000000      4.700000
