   12
 0026.xyz Energy -0.13804
   N     -0.752174     -0.539016      0.835840
   C     -0.012144     -0.336510     -0.459285
   H     -1.317926     -1.403786      0.802293
   H     -1.387343      0.255059      1.022185
   H     -0.090892     -0.616575      1.626680
   H     -0.765998     -0.295837     -1.251510
   H      0.612447     -1.222715     -0.607901
   C      0.863990      0.927871     -0.514927
   H      0.257119      1.826195     -0.377734
   H      1.364096      0.998419     -1.484039
   H      1.630319      0.902904      0.263679
  Br      0.000000      0.000000      4.680000
