   12
 0027.xyz Energy -0.115043
   N      1.004925     -0.674104     -0.301068
   C      0.002948      0.448176     -0.351367
   H      1.742334     -0.538028     -1.012924
   H      0.545885     -1.582619     -0.481625
   H      1.457222     -0.719262      0.627440
   H     -0.410336      0.458267     -1.364611
   H      0.559248      1.375753     -0.184962
   C     -1.141865      0.342032      0.672110
   H     -1.716537     -0.574383      0.517076
   H     -1.820654      1.192249      0.568972
   H     -0.750541      0.339426      1.692389
  Br      0.000000      0.000000      4.580000
