   12
 0028.xyz Energy -0.119229
   N      0.706405      0.504595     -0.895157
   C      0.328476     -0.018401      0.464859
   H      1.682035      0.846899     -0.897072
   H      0.089416      1.287026     -1.170557
   H      0.623921     -0.238818     -1.608789
   H      0.469085      0.805628      1.171098
   H      1.037510     -0.816844      0.704277
   C     -1.110033     -0.554594      0.576910
   H     -1.835128      0.230913      0.350380
   H     -1.301298     -0.913593      1.591208
   H     -1.268923     -1.385399     -0.114919
  Br      0.000000      0.000000      4.200000
