   11
 0001.xyz Energy 0.0947664
   O     -0.054713      0.020291     -1.158451
   O     -0.251795     -0.190592      1.116108
   C      0.299926      0.166643      0.041440
   H      1.291430      0.717542      0.178325
   C      0.953074     -0.486571      4.074241
   C     -0.070552      0.037734      5.141731
   O      0.322690      0.027835      6.371399
   O     -1.208811      0.424177      4.664255
   H      1.898422     -0.781914      4.545597
   H      0.515551     -1.345634      3.544082
   H      1.135680      0.300904      3.328129
