   11
 0010.xyz Energy 0.136779
   O      1.100237      0.299632      0.212397
   O     -1.148159     -0.134035      0.095862
   C      0.046886     -0.162042     -0.301641
   H      0.201988     -0.697699     -1.298797
   C     -0.071065     -1.201708      4.917111
   C      0.005813      0.090891      4.030816
   O      0.199421     -0.087198      2.766846
   O     -0.133208      1.204227      4.674332
   H      0.038986     -2.106153      4.306411
   H      0.722082     -1.166423      5.678793
   H     -1.034548     -1.222024      5.447612
