   11
 0011.xyz Energy 0.117273
   O     -0.080833      0.351092     -1.102549
   O      0.405417     -0.217045      1.064872
   C     -0.317612     -0.131170      0.036874
   H     -1.367597     -0.564766      0.158671
   C     -0.850487      0.226219      6.258585
   C      0.062700     -0.014884      5.005509
   O     -0.424756      0.331818      3.861392
   O      1.215379     -0.542480      5.262279
   H     -1.802534      0.688276      5.970146
   H     -1.038441     -0.734793      6.760196
   H     -0.321656      0.872183      6.974973
