   11
 0014.xyz Energy 0.0999234
   O      0.329267      0.678333      0.881397
   O     -0.164257     -0.426524     -1.066077
   C     -0.161468     -0.246405      0.180709
   H     -0.695224     -1.060918      0.778186
   C      1.031477      1.017685      4.508864
   C     -0.084549     -0.076754      4.646462
   O     -1.212327      0.173970      4.070202
   O      0.254074     -1.119868      5.332175
   H      0.682205      1.863786      3.904540
   H      1.320526      1.368345      5.510849
   H      1.924447      0.570402      4.047684
