   11
 0020.xyz Energy 0.105185
   O      1.059991      0.197598     -0.427537
   O     -1.130955     -0.243330      0.084586
   C      0.069434      0.044748      0.335588
   H      0.299072      0.192696      1.444950
   C     -1.014355     -0.973391      4.474722
   C      0.075256      0.080516      4.069420
   O     -0.354742      1.198333      3.587332
   O      1.297753     -0.294247      4.264376
   H     -2.024618     -0.584736      4.297513
   H     -0.861196     -1.894764      3.893259
   H     -0.892712     -1.231954      5.537027
