   11
 0021.xyz Energy 0.108884
   O      1.091033      0.082662     -0.385003
   O     -1.091073      0.259207      0.296301
   C      0.000033     -0.334528      0.086799
   H      0.000245     -1.440416      0.373709
   C     -1.444330     -0.174493      3.683066
   C      0.114113      0.007728      3.700258
   O      0.821577     -1.069603      3.624960
   O      0.520520      1.232286      3.791072
   H     -1.716981     -1.232764      3.589200
   H     -1.867755      0.239577      4.610289
   H     -1.868100      0.398013      2.844735
