   11
 0023.xyz Energy 0.111845
   O      0.247275      0.269485      1.100748
   O     -0.546209     -0.381373     -0.949544
   C      0.292512      0.109483     -0.147963
   H      1.259535      0.471442     -0.637001
   C      0.758192      0.570375      6.243014
   C     -0.064193     -0.041062      5.054708
   O     -1.289223      0.349975      4.939768
   O      0.585032     -0.880493      4.315237
   H      0.152721      1.282621      6.816772
   H      1.102996     -0.241551      6.900564
   H      1.652529      1.072789      5.845666
