   11
 0025.xyz Energy 0.115025
   O     -0.013046     -0.204882      1.141607
   O      0.217403      0.473089     -1.036507
   C     -0.199968     -0.262446     -0.102850
   H     -0.861033     -1.130068     -0.442747
   C      0.313674      1.368067      4.296823
   C     -0.026376     -0.105445      4.715597
   O     -0.366485     -0.291088      5.947134
   O      0.075349     -0.980418      3.768481
   H      0.192073      2.056636      5.141911
   H      1.348993      1.409810      3.926881
   H     -0.343180      1.671316      3.468133
