   11
 0030.xyz Energy 0.143225
   O      0.240256     -0.248182     -1.107292
   O     -0.459716      0.477241      0.952012
   C      0.214745     -0.224138      0.151952
   H      0.924681     -0.965128      0.654179
   C      0.051013     -0.888428      5.111050
   C      0.000450      0.066529      3.866967
   O      0.902765     -0.117026      2.962006
   O     -0.950458      0.943033      3.888702
   H      0.869080     -1.613290      5.019246
   H      0.184381     -0.288127      6.023376
   H     -0.909636     -1.416416      5.203390
