   11
 0035.xyz Energy 0.0908186
   O     -0.296389      0.135947      1.113142
   O     -0.052771     -0.102134     -1.154213
   C      0.341663     -0.033088      0.040182
   H      1.471119     -0.142458      0.173123
   C      1.129198     -0.485330      4.241418
   C     -0.085432      0.043055      5.082682
   O      0.117448      1.109538      5.781449
   O     -1.167008     -0.659103      4.982070
   H      2.004861      0.164188      4.361533
   H      1.375586     -1.508018      4.563734
   H      0.842181     -0.535969      3.180663
