   10
 0002.xyz Energy -0.0012928
   C     -0.060518     -1.402937     -0.380696
   C      0.001502      0.111614      0.024929
   O     -0.483840      0.955971     -0.822612
   O      0.540553      0.347609      1.176748
   H     -0.541755     -1.530415     -1.358064
   H      0.960368     -1.812052     -0.410725
   H     -0.615605     -1.962432      0.386759
   O      0.043066      0.049311      4.399938
   H     -0.690473     -0.086125      5.007145
   H      0.006849     -0.696640      3.793831
