   10
 0005.xyz Energy -0.0107575
   C     -0.632067     -1.286324     -0.250367
   C      0.046389      0.103449      0.015095
   O     -0.224325      1.046939     -0.823571
   O      0.812133      0.148116      1.056535
   H     -1.276928     -1.247858     -1.136799
   H      0.148001     -2.049768     -0.388692
   H     -1.222680     -1.576869      0.631055
   O      0.054244     -0.021088      4.149986
   H     -0.003527      0.502064      3.344942
   H     -0.857535     -0.167310      4.419059
