   10
 0006.xyz Energy -0.00777577
   C      1.346576      0.550188      0.029153
   C     -0.106194     -0.042312      0.003737
   O     -0.682899     -0.204646      1.147362
   O     -0.568307     -0.306888     -1.174994
   H      1.667618      0.764310      1.055881
   H      2.038590     -0.167121     -0.436754
   H      1.374358      1.470764     -0.572437
   O      0.063935      0.006368      4.447428
   H     -0.363930     -0.013081      5.308634
   H     -0.650968     -0.088010      3.810931
