   10
 0007.xyz Energy 0.00701289
   C     -1.339014     -0.168667      0.543522
   C      0.103595      0.009791     -0.047474
   O      0.381181     -0.673192     -1.107332
   O      0.863322      0.830095      0.602811
   H     -1.931319     -0.863654     -0.064142
   H     -1.264093     -0.544595      1.574807
   H     -1.837872      0.810823      0.586929
   O      0.005997      0.055696      3.906114
   H     -0.797625     -0.447782      4.066811
   H      0.702430     -0.436329      4.351102
