   10
 0012.xyz Energy -0.0093437
   C     -1.410810     -0.040932     -0.353216
   C      0.110462     -0.002613      0.029543
   O      0.582357     -1.047649      0.622867
   O      0.728639      1.086299     -0.294626
   H     -1.866701     -0.995668     -0.063856
   H     -1.931465      0.788749      0.147815
   H     -1.516913      0.112295     -1.437379
   O     -0.018873      0.052367      3.834464
   H      0.836347     -0.387082      3.859041
   H     -0.536755     -0.444186      3.193874
