   10
 0013.xyz Energy 0.00288184
   C      0.595731      1.327217      0.020543
   C     -0.047293     -0.104042      0.004471
   O     -0.270673     -0.648851      1.153430
   O     -0.282690     -0.584579     -1.173080
   H      0.753183      1.677683      1.047904
   H      1.555911      1.299055     -0.515879
   H     -0.060507      2.026704     -0.518172
   O      0.055481     -0.034725      4.181522
   H     -0.845075     -0.371556      4.155706
   H     -0.035623      0.922782      4.180133
