   10
 0020.xyz Energy -0.0128673
   C      0.609276      0.177208     -1.309276
   C     -0.043662     -0.018166      0.104140
   O      0.428598     -0.975563      0.830213
   O     -0.995291      0.811155      0.386248
   H      1.415995     -0.547253     -1.474950
   H     -0.162821      0.060328     -2.084318
   H      1.002338      1.201497     -1.389753
   O     -0.026464      0.059781      4.003488
   H      0.151148     -0.456157      3.211412
   H      0.268937     -0.492804      4.733221
