   10
 0023.xyz Energy -0.00520831
   C     -1.024325      1.031543     -0.059173
   C      0.081424     -0.080310     -0.001342
   O      0.591571     -0.445553     -1.129689
   O      0.360066     -0.513224      1.185208
   H     -1.198392      1.361842     -1.090527
   H     -1.957682      0.636896      0.369294
   H     -0.714071      1.885472      0.561062
   O      0.052170     -0.006098      4.579081
   H     -0.697306     -0.604488      4.506038
   H     -0.130846      0.701286      3.953593
