   10
 0027.xyz Energy 0.00181042
   C      0.526861      1.355397      0.046263
   C     -0.041877     -0.106404      0.002455
   O     -0.233824     -0.684888      1.140582
   O     -0.255537     -0.574706     -1.184136
   H      0.668943      1.692831      1.080206
   H      1.485738      1.387367     -0.492271
   H     -0.165906      2.030894     -0.477112
   O     -0.035674     -0.052519      4.075980
   H      0.850702     -0.038771      3.702791
   H     -0.284413      0.872458      4.163542
