   10
 0028.xyz Energy 0.00974335
   C      0.653943      1.270784      0.272561
   C     -0.053943     -0.099597     -0.015875
   O     -0.707157     -0.628764      0.963980
   O      0.099873     -0.552243     -1.217710
   H      0.469568      1.601305      1.302050
   H      1.735616      1.162569      0.102977
   H      0.284898      2.026898     -0.436129
   O     -0.028055      0.009408      3.981599
   H      0.190706      0.675791      4.639777
   H      0.254638     -0.825133      4.367277
