   10
 0030.xyz Energy -0.0164623
   C     -0.160211      1.445662     -0.034900
   C      0.014620     -0.113396     -0.003017
   O      0.348677     -0.679102     -1.114413
   O     -0.200178     -0.664332      1.147326
   H      0.051512      1.846244     -1.033796
   H     -1.189074      1.700947      0.259641
   H      0.515228      1.902439      0.703532
   O      0.030721     -0.007034      4.337385
   H      0.050295     -0.606963      3.585838
   H     -0.537956      0.718619      4.063238
