   10
 0034.xyz Energy 0.00219945
   C      1.157944      0.875032      0.101529
   C     -0.091309     -0.067453     -0.013938
   O     -0.697409     -0.084592     -1.153749
   O     -0.378708     -0.728510      1.060009
   H      1.352223      1.390857     -0.846768
   H      0.982889      1.612551      0.898966
   H      2.036535      0.280204      0.392049
   O      0.027833      0.043766      4.460049
   H     -0.061273     -0.903498      4.319079
   H     -0.380547      0.208756      5.315108
