   10
 0036.xyz Energy 0.00606949
   C     -0.464963     -0.688725     -1.194274
   C      0.031953      0.058106      0.093189
   O     -0.570300      1.161202      0.388637
   O      1.002922     -0.521463      0.721102
   H     -1.296680     -0.151360     -1.666048
   H      0.370349     -0.781767     -1.904263
   H     -0.781116     -1.707271     -0.924541
   O      0.054043      0.036808      3.236724
   H     -0.814488      0.239260      2.876462
   H     -0.043394     -0.823553      3.655539
