   10
 0039.xyz Energy 0.00592702
   C     -1.349232     -0.532318      0.114167
   C      0.104615      0.045987     -0.004721
   O      0.353202      1.123003      0.662408
   O      0.900655     -0.628614     -0.769044
   H     -1.963158      0.078467      0.787311
   H     -1.809131     -0.564538     -0.884802
   H     -1.299885     -1.566458      0.486003
   O     -0.016505      0.057212      4.132786
   H      0.749940     -0.129455      4.683094
   H     -0.487932     -0.778729      4.068900
