    6
 0002.xyz Energy 0.112366
   H     -0.369805     -0.935193     -0.192931
   N      0.000002      0.000005      0.000001
   H     -0.568772      0.698943     -0.486275
   H     -0.029400      0.177372      1.008081
   H      0.967949      0.058807     -0.328890
  Na      0.000000      0.000000      4.720000
