    6
 0004.xyz Energy 0.100026
   H      0.115511      0.960827     -0.334715
   N     -0.000001     -0.000005      0.000002
   H     -0.793557     -0.435182     -0.478926
   H      0.851419     -0.534225     -0.195554
   H     -0.173364      0.008653      1.009169
  Na      0.000000      0.000000      5.300000
