    6
 0005.xyz Energy 0.0949485
   H      0.144742     -0.177199      0.998106
   N     -0.000001      0.000001     -0.000005
   H     -0.596395     -0.733267     -0.393852
   H     -0.452196      0.910470     -0.122942
   H      0.903861     -0.000018     -0.481236
  Na      0.000000      0.000000      5.580000
