    6
 0006.xyz Energy 0.093457
   H      0.626624     -0.052243      0.808194
   N     -0.000003      0.000000     -0.000004
   H     -0.228730     -0.946642     -0.316288
   H     -0.859974      0.488162      0.265886
   H      0.462128      0.510719     -0.757731
  Na      0.000000      0.000000      5.640000
