    6
 0007.xyz Energy 0.132766
   H     -0.098638      0.612047     -0.815005
   N      0.000001     -0.000003      0.000004
   H      0.028446      0.567693      0.851705
   H     -0.797111     -0.641293      0.043704
   H      0.867296     -0.538401     -0.080466
  Na      0.000000      0.000000      3.940000
