    6
 0014.xyz Energy 0.142075
   H     -0.198532     -0.918829      0.406083
   N      0.000001      0.000005     -0.000002
   H      0.670944      0.497258      0.592499
   H      0.395015     -0.119176     -0.937183
   H     -0.867442      0.540676     -0.061368
  Na      0.000000      0.000000      3.620000
