    6
 0015.xyz Energy 0.122946
   H     -0.082726      0.984434     -0.269462
   N      0.000000     -0.000005      0.000001
   H     -0.934408     -0.409281      0.088639
   H      0.528039     -0.506696     -0.716230
   H      0.489089     -0.068383      0.897033
  Na      0.000000      0.000000      4.280000
