    6
 0016.xyz Energy 0.112421
   H     -0.115796      0.988688     -0.240107
   N      0.000001     -0.000005      0.000001
   H     -0.816809     -0.527228     -0.321467
   H      0.842177     -0.365083     -0.453876
   H      0.090418     -0.096301      1.015432
  Na      0.000000      0.000000      4.720000
