    6
 0018.xyz Energy 0.109424
   H     -1.002346      0.161713     -0.133101
   N      0.000005     -0.000001      0.000001
   H      0.417471      0.810327      0.466450
   H      0.137381     -0.834453      0.577379
   H      0.447418     -0.137574     -0.910737
  Na      0.000000      0.000000      4.780000
