    6
 0020.xyz Energy 0.102088
   H      0.235505     -0.932221      0.352230
   N     -0.000001      0.000005     -0.000002
   H      0.009824     -0.009470     -1.023865
   H     -0.932740      0.263947      0.329971
   H      0.687429      0.677673      0.341691
  Na      0.000000      0.000000      5.120000
