    6
 0021.xyz Energy 0.129085
   H      0.907978      0.438454     -0.178598
   N     -0.000005     -0.000002      0.000001
   H     -0.747867      0.670360     -0.199498
   H     -0.107301     -0.820561     -0.603090
   H     -0.052741     -0.288220      0.981173
  Na      0.000000      0.000000      4.100000
