    6
 0024.xyz Energy 0.110029
   H     -0.522728     -0.852300      0.221143
   N      0.000003      0.000005     -0.000001
   H     -0.650970      0.731856     -0.298516
   H      0.508528      0.313922      0.831507
   H      0.665131     -0.193542     -0.754118
  Na      0.000000      0.000000      4.780000
