    6
 0025.xyz Energy 0.100342
   H      0.018475     -0.241636      0.994905
   N     -0.000000      0.000001     -0.000005
   H      0.959032      0.094426     -0.346161
   H     -0.480042     -0.738803     -0.521807
   H     -0.497464      0.885995     -0.126862
  Na      0.000000      0.000000      5.280000
