    6
 0027.xyz Energy 0.096132
   H      0.893134      0.487100      0.116665
   N     -0.000005     -0.000003     -0.000001
   H      0.128478     -0.998223      0.188497
   H     -0.686925      0.385291      0.654398
   H     -0.334619      0.125869     -0.959552
  Na      0.000000      0.000000      5.460000
