    6
 0028.xyz Energy 0.13596
   H      0.442054      0.922838      0.039021
   N     -0.000002     -0.000005     -0.000000
   H      0.716729     -0.725818      0.089301
   H     -0.673029     -0.088742      0.766622
   H     -0.485721     -0.108208     -0.894940
  Na      0.000000      0.000000      3.820000
