    6
 0029.xyz Energy 0.121199
   H      0.223688      0.994627     -0.096157
   N     -0.000001     -0.000005      0.000001
   H     -0.991767     -0.148356     -0.207062
   H      0.570300     -0.542929     -0.654628
   H      0.197797     -0.303266      0.957840
  Na      0.000000      0.000000      4.360000
