    6
 0031.xyz Energy 0.11529
   H     -0.755773      0.441529      0.531435
   N      0.000004     -0.000002     -0.000003
   H      0.299270      0.626535     -0.752581
   H      0.790872     -0.187471      0.622839
   H     -0.334426     -0.880560     -0.401653
  Na      0.000000      0.000000      4.540000
