    6
 0033.xyz Energy 0.0995834
   H      0.592708      0.047459     -0.833672
   N     -0.000003     -0.000000      0.000005
   H     -0.231834      0.948490      0.308394
   H     -0.861570     -0.506842     -0.222172
   H      0.500742     -0.489104      0.747387
  Na      0.000000      0.000000      5.280000
