    6
 0034.xyz Energy 0.0929052
   H     -0.964190     -0.262520      0.223573
   N      0.000005      0.000001     -0.000001
   H      0.012953      0.941936     -0.401342
   H      0.564584     -0.014878      0.854152
   H      0.386581     -0.664557     -0.676366
  Na      0.000000      0.000000      5.680000
