    2
 0004.xyz Energy -0.0104446
   K      0.000000      0.000000      0.000000
   F      0.000000      0.000000     50.665556
