    2
 0006.xyz Energy -0.188485
   K      0.000000      0.000000      0.722000
   F     -0.000000      0.000000     -2.133741
