    2
 0007.xyz Energy -0.188712
   K      0.000000      0.000000      0.722000
   F      0.000000      0.000000     -2.129661
