    2
 0009.xyz Energy -0.196642
   K      0.000000      0.000000      0.722000
   F      0.000000      0.000000     -1.986874
