    2
 0013.xyz Energy -0.186286
   K      0.000000      0.000000      0.722000
   F      0.000000      0.000000     -1.162789
