    2
 0016.xyz Energy -0.181922
   K      0.000000      0.000000      0.722000
   F     -0.000000      0.000000     -2.252050
