    2
 0025.xyz Energy -0.109729
   K      0.000000      0.000000      0.722000
   F      0.000000      0.000000      5.617556
