    2
 0027.xyz Energy -0.0799167
   K      0.000000      0.000000      0.722000
   F      0.000000      0.000000      7.375876
