    2
 0029.xyz Energy -0.0617032
   K      0.000000      0.000000      0.722000
   F      0.000000      0.000000      9.313700
