    2
 0031.xyz Energy -0.0494575
   K      0.000000      0.000000      0.722000
   F      0.000000      0.000000     11.431028
