    2
 0038.xyz Energy -0.0270949
   K      0.000000      0.000000      0.722000
   F      0.000000      0.000000     20.255267
