    2
 0040.xyz Energy -0.0235648
   K      0.000000      0.000000      0.722000
   F      0.000000      0.000000     23.180361
