    2
 0041.xyz Energy -0.0220616
   K      0.000000      0.000000      0.722000
   F      0.000000      0.000000     24.710222
