    2
 0042.xyz Energy -0.0207022
   K      0.000000      0.000000      0.722000
   F      0.000000      0.000000     26.284959
