    2
 0063.xyz Energy 7.37556
   K      0.000000      0.000000      0.722000
   F      0.000000      0.000000      1.382900
