    2
 0065.xyz Energy -0.194168
   K      0.000000      0.000000      0.722000
   F      0.000000      0.000000      3.475750
