    2
 0066.xyz Energy -0.136766
   K      0.000000      0.000000      0.722000
   F      0.000000      0.000000      4.687400
