    2
 0068.xyz Energy -0.0791254
   K      0.000000      0.000000      0.722000
   F      0.000000      0.000000      7.441150
