    2
 0069.xyz Energy -0.0641889
   K      0.000000      0.000000      0.722000
   F      0.000000      0.000000      8.983250
