    2
 0070.xyz Energy -0.0534393
   K      0.000000      0.000000      0.722000
   F      0.000000      0.000000     10.635500
