    2
 0072.xyz Energy -0.0390748
   K      0.000000      0.000000      0.722000
   F      0.000000      0.000000     14.270450
