    2
 0075.xyz Energy -0.0266933
   K      0.000000      0.000000      0.722000
   F      0.000000      0.000000     20.549000
