    2
 0076.xyz Energy -0.0239036
   K      0.000000      0.000000      0.722000
   F      0.000000      0.000000     22.862150
