    2
 0083.xyz Energy -0.0127772
   K      0.000000      0.000000      0.722000
   F      0.000000      0.000000     42.138400
