    2
 0084.xyz Energy -0.0118622
   K      0.000000      0.000000      0.722000
   F      0.000000      0.000000     45.332750
