    2
 0086.xyz Energy -0.0103094
   K      0.000000      0.000000      0.722000
   F      0.000000      0.000000     52.051900
