    2
 0091.xyz Energy -0.00755372
   K      0.000000      0.000000      0.722000
   F      0.000000      0.000000     70.777400
