    2
 0095.xyz Energy -0.00608122
   K      0.000000      0.000000      0.722000
   F      0.000000      0.000000     87.740500
