    2
 0097.xyz Energy -0.203208
   K      0.000000      0.000000      0.722000
   F     -0.000000      0.000000     -1.863153
