    2
 0100.xyz Energy -0.19603
   K      0.000000      0.000000      0.722000
   F      0.000000      0.000000     -1.998031
