    2
 0103.xyz Energy -0.0131778
   K      0.000000      0.000000      0.000000
   F      0.000000      0.000000     40.157333
