    2
 0106.xyz Energy -0.00732482
   K      0.000000      0.000000      0.000000
   F      0.000000      0.000000     72.244667
