    2
 0109.xyz Energy -0.0049913
   K      0.000000      0.000000      0.000000
   F      0.000000      0.000000    106.020000
