    2
 0111.xyz Energy -0.213437
   K      0.000000      0.000000      0.722000
   F      0.000000      0.000000     -1.606886
