    2
 0112.xyz Energy -0.210915
   K      0.000000      0.000000      0.722000
   F      0.000000      0.000000     -1.359610
