    2
 0114.xyz Energy 0.148993
   K      0.000000      0.000000      0.722000
   F      0.000000      0.000000     -0.689718
