    2
 0116.xyz Energy 17.3769
   K      0.000000      0.000000      0.722000
   F      0.000000      0.000000      0.213961
