    2
 0121.xyz Energy -0.193045
   K      0.000000      0.000000      0.722000
   F      0.000000      0.000000      3.495982
