    2
 0129.xyz Energy -0.0478647
   K      0.000000      0.000000      0.722000
   F      0.000000      0.000000     11.786455
