    2
 0132.xyz Energy -0.0349681
   K      0.000000      0.000000      0.722000
   F      0.000000      0.000000     15.859757
