    2
 0134.xyz Energy -0.0291681
   K      0.000000      0.000000      0.722000
   F      0.000000      0.000000     18.867527
