    2
 0135.xyz Energy -0.026815
   K      0.000000      0.000000      0.722000
   F      0.000000      0.000000     20.459082
