    2
 0138.xyz Energy -0.0212857
   K      0.000000      0.000000      0.722000
   F      0.000000      0.000000     25.584429
