    2
 0140.xyz Energy -0.018522
   K      0.000000      0.000000      0.722000
   F      0.000000      0.000000     29.293561
