    2
 0143.xyz Energy -0.0153062
   K      0.000000      0.000000      0.722000
   F      0.000000      0.000000     35.295612
