    2
 0144.xyz Energy -0.0144228
   K      0.000000      0.000000      0.722000
   F      0.000000      0.000000     37.413190
