    2
 0153.xyz Energy -0.00906449
   K      0.000000      0.000000      0.722000
   F      0.000000      0.000000     59.101500
