    2
 0603.xyz Energy -0.191265
   K      0.000000      0.000000      0.722000
   F     -0.000000      0.000000     -2.083926
