    2
 0611.xyz Energy -0.158954
   K      0.000000      0.000000      0.722000
   F      0.000000      0.000000     -1.063589
