    2
 0612.xyz Energy 0.0955412
   K      0.000000      0.000000      0.722000
   F      0.000000      0.000000     -0.727342
