   12
 0002.xyz Energy -0.124154
   N     -1.218841     -0.067024     -0.254689
   C      0.047009      0.358625      0.439895
   H     -2.042282      0.386565      0.175695
   H     -1.344469     -1.091160     -0.190810
   H     -1.192756      0.193768     -1.254711
   H     -0.061887      0.082758      1.493275
   H      0.098921      1.448898      0.361352
   C      1.337271     -0.261766     -0.125533
   H      1.309651     -1.351406     -0.047936
   H      2.205338      0.098337      0.432183
   H      1.469751      0.009441     -1.175774
   F      0.000000      0.000000      4.220000
