   12
 0005.xyz Energy -0.107232
   N     -0.121604      0.373103     -1.183612
   C     -0.352045      0.329225      0.303321
   H     -0.703461      1.106626     -1.622263
   H     -0.363342     -0.533264     -1.618100
   H      0.869446      0.578520     -1.394236
   H     -1.419732      0.141338      0.452695
   H     -0.108435      1.323548      0.690021
   C      0.469326     -0.732956      1.055974
   H      0.233740     -1.735537      0.690693
   H      0.243897     -0.697243      2.124697
   H      1.540218     -0.557885      0.926928
   F      0.000000      0.000000      4.760000
