   12
 0007.xyz Energy -0.128353
   N     -1.099242     -0.581917     -0.089275
   C     -0.047197      0.353313      0.444152
   H     -1.967440     -0.511459      0.467767
   H     -0.770679     -1.561400     -0.052160
   H     -1.326856     -0.354249     -1.071669
   H      0.120129      0.077962      1.489980
   H     -0.471753      1.361184      0.405331
   C      1.290434      0.326864     -0.317037
   H      1.736346     -0.670165     -0.282426
   H      1.994579      1.031574      0.132213
   H      1.146639      0.608044     -1.363159
   F      0.000000      0.000000      4.160000
