   12
 0011.xyz Energy -0.163567
   N     -0.006178      0.620841      1.081411
   C     -0.023009      0.397518     -0.407160
   H     -0.043016      1.630730      1.300033
   H      0.855092      0.231315      1.499983
   H     -0.818399      0.164005      1.529000
   H      0.839764      0.931532     -0.817064
   H     -0.939928      0.859847     -0.785407
   C      0.028704     -1.078050     -0.842352
   H      0.942672     -1.556529     -0.482046
   H      0.012109     -1.151018     -1.932610
   H     -0.830300     -1.628052     -0.450280
   F      0.000000      0.000000      4.140000
