   12
 0014.xyz Energy -0.122969
   N      0.404447      1.093913     -0.441257
   C     -0.304819      0.123475      0.464938
   H      0.272585      2.065046     -0.111800
   H      0.038523      1.027958     -1.405864
   H      1.418936      0.896595     -0.466104
   H     -1.361283      0.408845      0.469365
   H      0.107181      0.269477      1.468183
   C     -0.171421     -1.356210      0.062316
   H     -0.586072     -1.525496     -0.934432
   H     -0.712286     -1.990179      0.769288
   H      0.876997     -1.664310      0.060412
   F      0.000000      0.000000      4.180000
