   12
 0016.xyz Energy -0.164909
   N     -0.095989      0.453113      1.157759
   C      0.070552      0.452646     -0.338323
   H     -0.067280      1.417865      1.528512
   H      0.659232     -0.088945      1.610012
   H     -1.001264      0.031534      1.425128
   H      1.027769      0.938808     -0.550346
   H     -0.738223      1.066716     -0.746197
   C      0.042399     -0.939849     -0.993710
   H      0.849205     -1.566837     -0.606346
   H      0.168692     -0.850672     -2.075541
   H     -0.910160     -1.439551     -0.801251
   F      0.000000      0.000000      4.200000
