   12
 0023.xyz Energy -0.145516
   N      0.660756     -0.980916      0.395140
   C     -0.389491      0.097464      0.403889
   H      0.597146     -1.560143      1.249236
   H      1.607933     -0.568683      0.354665
   H      0.542359     -1.600135     -0.424182
   H     -0.225616      0.691493      1.308237
   H     -1.358211     -0.405910      0.479756
   C     -0.382161      1.020098     -0.828206
   H      0.574739      1.540223     -0.917153
   H     -1.171992      1.770515     -0.742751
   H     -0.553392      0.446854     -1.742636
   F      0.000000      0.000000      3.940000
