   12
 0025.xyz Energy -0.155256
   N     -1.175712     -0.358679      0.209719
   C      0.203808     -0.358564     -0.392712
   H     -1.747995     -1.122776     -0.187367
   H     -1.657213      0.536498      0.021218
   H     -1.127530     -0.490470      1.233949
   H      0.076904     -0.248472     -1.474075
   H      0.639551     -1.340450     -0.183936
   C      1.140722      0.744233      0.132071
   H      0.727736      1.734520     -0.074991
   H      2.117029      0.673067     -0.353750
   H      1.288104      0.646771      1.210445
   F      0.000000      0.000000      3.620000
