   12
 0028.xyz Energy -0.123055
   N      0.103801     -1.058013     -0.651741
   C      0.516607      0.239479     -0.009786
   H      0.903306     -1.494522     -1.140903
   H     -0.649948     -0.901195     -1.341660
   H     -0.242089     -1.724065      0.059225
   H      0.899868      0.880463     -0.809674
   H      1.333198      0.004724      0.679874
   C     -0.604145      0.973749      0.747927
   H     -1.426667      1.225929      0.074160
   H     -0.221866      1.900948      1.182008
   H     -0.995161      0.353329      1.558049
   F      0.000000      0.000000      4.020000
