    6
 0001.xyz Energy 0.147315
   H     -0.599849     -0.829859      0.008886
   N      0.000003      0.000005     -0.000000
   H      0.798995     -0.149723      0.622637
   H      0.336290      0.167869     -0.952513
   H     -0.535482      0.811650      0.320991
  Li      0.000000      0.000000      3.480000
