    6
 0004.xyz Energy 0.111968
   H     -0.727423     -0.617164     -0.372193
   N      0.000004      0.000003      0.000002
   H      0.069549     -0.126995      1.013668
   H      0.898001     -0.229693     -0.435186
   H     -0.240182      0.973806     -0.206316
  Li      0.000000      0.000000      4.740000
