    6
 0006.xyz Energy 0.110881
   H     -0.364892      0.931208     -0.219706
   N      0.000002     -0.000005      0.000001
   H      0.229647     -0.490372     -0.869071
   H      0.843201      0.090500      0.573911
   H     -0.707983     -0.531264      0.514849
  Li      0.000000      0.000000      4.720000
