    6
 0016.xyz Energy 0.1284
   H      0.071991      0.479408      0.901970
   N     -0.000000     -0.000003     -0.000005
   H      0.845249      0.178371     -0.549749
   H     -0.099639     -1.007152      0.155786
   H     -0.817596      0.349410     -0.507939
  Li      0.000000      0.000000      4.100000
