    6
 0017.xyz Energy 0.124181
   H      0.303217     -0.694481     -0.688709
   N     -0.000002      0.000004      0.000004
   H      0.641425     -0.008187      0.798119
   H      0.001253      0.929611     -0.429387
   H     -0.945871     -0.226996      0.319925
  Li      0.000000      0.000000      4.220000
