    6
 0018.xyz Energy 0.12206
   H      0.243088      0.962970      0.249322
   N     -0.000001     -0.000005     -0.000001
   H      0.827056     -0.596234      0.094711
   H     -0.737928     -0.338260      0.624175
   H     -0.332197     -0.028402     -0.968189
  Li      0.000000      0.000000      4.260000
