    6
 0019.xyz Energy 0.109971
   H      0.256894      0.541348      0.830368
   N     -0.000001     -0.000003     -0.000005
   H     -0.987607     -0.264334      0.056977
   H      0.153636      0.567492     -0.838392
   H      0.577096     -0.844465     -0.048891
  Li      0.000000      0.000000      4.780000
