    6
 0021.xyz Energy 0.149017
   H      0.005075     -1.021375     -0.073017
   N     -0.000000      0.000006      0.000000
   H     -0.963830      0.330033      0.102939
   H      0.547920      0.286552      0.816225
   H      0.410836      0.404713     -0.846152
  Li      0.000000      0.000000      3.480000
