    6
 0022.xyz Energy 0.133967
   H      0.992437      0.220503     -0.122524
   N     -0.000005     -0.000001      0.000001
   H     -0.568032      0.709739     -0.471271
   H     -0.197823     -0.919550     -0.404780
   H     -0.226506     -0.010675      0.998565
  Li      0.000000      0.000000      3.960000
