    6
 0023.xyz Energy 0.133591
   H     -0.899807      0.306729      0.380564
   N      0.000005     -0.000002     -0.000002
   H      0.281531      0.627582     -0.758530
   H      0.707884      0.019505      0.739643
   H     -0.089676     -0.953793     -0.361648
  Li      0.000000      0.000000      3.900000
