    6
 0026.xyz Energy 0.107803
   H     -0.847034      0.575015     -0.021364
   N      0.000005     -0.000003      0.000000
   H      0.814040      0.583411     -0.213207
   H      0.109612     -0.411741      0.931132
   H     -0.076683     -0.746641     -0.696562
  Li      0.000000      0.000000      4.900000
