    6
 0027.xyz Energy 0.103776
   H      1.019498     -0.079666     -0.053309
   N     -0.000006      0.000000      0.000000
   H     -0.267610      0.987646     -0.037788
   H     -0.422982     -0.498641     -0.788033
   H     -0.328829     -0.409344      0.879125
  Li      0.000000      0.000000      5.080000
