    6
 0028.xyz Energy 0.144529
   H      1.003540     -0.142072     -0.145900
   N     -0.000005      0.000001      0.000001
   H     -0.487637     -0.896281     -0.085895
   H     -0.157636      0.386093      0.935219
   H     -0.358192      0.652249     -0.703436
  Li      0.000000      0.000000      3.640000
