    6
 0001.xyz Energy 0.108468
   H      1.011975     -0.088886     -0.128729
   N     -0.000006      0.000000      0.000001
   H     -0.482178     -0.651537     -0.625692
   H     -0.240961     -0.217819      0.971105
   H     -0.288759      0.958235     -0.216693
   K      0.000000      0.000000      4.860000
