    6
 0002.xyz Energy 0.109479
   H     -0.905107      0.464292     -0.117381
   N      0.000005     -0.000003      0.000001
   H      0.592733      0.559447      0.619818
   H     -0.142781     -0.927486      0.409799
   H      0.455087     -0.096217     -0.912245
   K      0.000000      0.000000      4.760000
