    6
 0005.xyz Energy 0.0879739
   H     -0.908859      0.468710      0.053383
   N      0.000005     -0.000003     -0.000000
   H     -0.137775     -1.014532      0.015149
   H      0.471471      0.267504     -0.868740
   H      0.575094      0.278353      0.800211
   K      0.000000      0.000000      5.980000
