    6
 0006.xyz Energy 0.083146
   H     -0.962019      0.086265     -0.340063
   N      0.000005     -0.000000      0.000002
   H      0.363873      0.928127      0.233802
   H      0.015034     -0.592770      0.834835
   H      0.583039     -0.421616     -0.728600
   K      0.000000      0.000000      6.340000
