    6
 0010.xyz Energy 0.0967996
   H     -0.650656      0.790278     -0.025938
   N      0.000004     -0.000004      0.000000
   H     -0.518978     -0.873664     -0.125936
   H      0.688133      0.099641     -0.751729
   H      0.481451     -0.016195      0.903601
   K      0.000000      0.000000      5.440000
