    6
 0015.xyz Energy 0.121602
   H     -0.462102     -0.842115      0.354781
   N      0.000003      0.000005     -0.000002
   H     -0.397856      0.825685      0.456554
   H      1.002894     -0.050871      0.200419
   H     -0.142971      0.067237     -1.011726
   K      0.000000      0.000000      4.240000
