    6
 0016.xyz Energy 0.106024
   H      0.218768     -0.951828      0.307779
   N     -0.000001      0.000005     -0.000002
   H     -0.415597      0.522670      0.776261
   H      0.859393      0.466358     -0.304149
   H     -0.662547     -0.037271     -0.779868
   K      0.000000      0.000000      4.940000
