    6
 0028.xyz Energy 0.121584
   H      0.867479     -0.478810     -0.258430
   N     -0.000005      0.000003      0.000001
   H     -0.352714      0.525390     -0.805012
   H     -0.698186     -0.691031      0.289074
   H      0.183488      0.644414      0.774348
   K      0.000000      0.000000      4.280000
