    6
 0031.xyz Energy 0.103012
   H     -0.163738     -0.809080      0.605925
   N      0.000001      0.000004     -0.000003
   H     -0.897683      0.370648     -0.324455
   H      0.498628      0.724156      0.524899
   H      0.562780     -0.285786     -0.806323
   K      0.000000      0.000000      5.080000
