    6
 0033.xyz Energy 0.0875107
   H     -0.065176      0.962918     -0.342208
   N      0.000000     -0.000005      0.000002
   H     -0.577993     -0.103975      0.838809
   H     -0.331458     -0.642961     -0.724768
   H      0.974622     -0.215908      0.228141
   K      0.000000      0.000000      6.020000
