    2
 0000.xyz Energy 0.00450202
  Na    -64.296000     42.525000     14.627000
   K     32.439000    -22.625000     -0.000000
