    2
 0003.xyz Energy 0.127766
  Na      0.386000      0.022000      0.000000
   K      4.495114      0.251437      0.000000
