    2
 0004.xyz Energy 0.125705
  Na      0.386000      0.022000      0.000000
   K      4.563829      0.255273      0.000000
