    2
 0007.xyz Energy 0.136237
  Na      0.386000      0.022000      0.000000
   K      4.234000      0.236857      0.000000
