    2
 0009.xyz Energy 0.163816
  Na      0.386000      0.022000      0.000000
   K      3.567471      0.199641      0.000000
