    2
 0010.xyz Energy 0.191233
  Na      0.386000      0.022000      0.000000
   K      3.100214      0.173551      0.000000
