    2
 0012.xyz Energy 0.626383
  Na      0.386000      0.022000      0.000000
   K      1.897714      0.106408      0.000000
