    2
 0013.xyz Energy 6.34666
  Na      0.386000      0.022000      0.000000
   K      1.162471      0.065355      0.000000
