    2
 0015.xyz Energy 3.24222
  Na      0.386000      0.022000      0.000000
   K     -0.576000     -0.031714      0.000000
