    2
 0016.xyz Energy 0.295232
  Na      0.386000      0.022000      0.000000
   K     -1.579229     -0.087731      0.000000
