    2
 0019.xyz Energy 0.0956325
  Na      0.386000      0.022000      0.000000
   K     -5.124886     -0.285706      0.000000
