    2
 0021.xyz Energy 0.0634481
  Na      0.386000      0.022000      0.000000
   K     -7.935300     -0.442629      0.000000
