    2
 0027.xyz Energy 0.0454723
  Na      0.386000      0.022000      0.000000
   K    -11.230150     -0.626600      0.000000
