    2
 0028.xyz Energy 0.0402288
  Na      0.386000      0.022000      0.000000
   K    -12.745300     -0.711200      0.000000
