    2
 0030.xyz Energy 0.0322779
  Na      0.386000      0.022000      0.000000
   K    -15.981361     -0.891889      0.000000
