    2
 0032.xyz Energy 0.0265787
  Na      0.386000      0.022000      0.000000
   K    -19.491770     -1.087896      0.000000
