    2
 0033.xyz Energy 0.024307
  Na      0.386000      0.022000      0.000000
   K    -21.349856     -1.191644      0.000000
