    2
 0034.xyz Energy 0.022328
  Na      0.386000      0.022000      0.000000
   K    -23.276528     -1.299222      0.000000
