    2
 0035.xyz Energy 0.0205918
  Na      0.386000      0.022000      0.000000
   K    -25.271787     -1.410630      0.000000
