    2
 0036.xyz Energy 0.0190589
  Na      0.386000      0.022000      0.000000
   K    -27.335633     -1.525867      0.000000
