    2
 0037.xyz Energy 0.0176976
  Na      0.386000      0.022000      0.000000
   K    -29.468067     -1.644933      0.000000
