    2
 0039.xyz Energy 0.0153927
  Na      0.386000      0.022000      0.000000
   K    -33.938694     -1.894556      0.000000
