    2
 0040.xyz Energy 0.014411
  Na      0.386000      0.022000      0.000000
   K    -36.276889     -2.025111      0.000000
