    2
 0041.xyz Energy 0.0135233
  Na      0.386000      0.022000      0.000000
   K    -38.683670     -2.159496      0.000000
