    2
 0042.xyz Energy 0.0127176
  Na      0.386000      0.022000      0.000000
   K    -41.159039     -2.297711      0.000000
