    2
 0043.xyz Energy 0.0119838
  Na      0.386000      0.022000      0.000000
   K    -43.702994     -2.439756      0.000000
