    2
 0044.xyz Energy 0.0113134
  Na      0.386000      0.022000      0.000000
   K    -46.315537     -2.585630      0.000000
