    2
 0046.xyz Energy 0.0101348
  Na      0.386000      0.022000      0.000000
   K    -51.746383     -2.888867      0.000000
