    2
 0048.xyz Energy 0.00913512
  Na      0.386000      0.022000      0.000000
   K    -57.451578     -3.207422      0.000000
