    2
 0049.xyz Energy 0.00869101
  Na      0.386000      0.022000      0.000000
   K    -60.407056     -3.372444      0.000000
