    2
 0050.xyz Energy 0.00827918
  Na      0.386000      0.022000      0.000000
   K    -63.431120     -3.541296      0.000000
