    2
 0051.xyz Energy 0.00789651
  Na      0.386000      0.022000      0.000000
   K    -66.523772     -3.713978      0.000000
