    2
 0053.xyz Energy 0.00720802
  Na      0.386000      0.022000      0.000000
   K    -72.914837     -4.070830      0.000000
