    2
 0054.xyz Energy 0.00689764
  Na      0.386000      0.022000      0.000000
   K    -76.213250     -4.255000      0.000000
