    2
 0055.xyz Energy 0.00660721
  Na      0.386000      0.022000      0.000000
   K    -79.580250     -4.443000      0.000000
