    2
 0056.xyz Energy 0.0459751
  Na      0.386000      0.022000      0.000000
   K    -11.103029     -0.619502      0.000000
