    2
 0061.xyz Energy 0.0251927
  Na      0.386000      0.022000      0.000000
   K    -20.585600     -1.148971      0.000000
