    2
 0062.xyz Energy 0.022836
  Na      0.386000      0.022000      0.000000
   K    -22.750100     -1.269829      0.000000
