    2
 0063.xyz Energy 0.0208091
  Na      0.386000      0.022000      0.000000
   K    -25.003929     -1.395673      0.000000
