    2
 0066.xyz Energy 0.0161637
  Na      0.386000      0.022000      0.000000
   K    -32.301386     -1.803135      0.000000
