    2
 0067.xyz Energy 0.014968
  Na      0.386000      0.022000      0.000000
   K    -34.912529     -1.948931      0.000000
