    2
 0070.xyz Energy 0.0120993
  Na      0.386000      0.022000      0.000000
   K    -43.281929     -2.416245      0.000000
