    2
 0071.xyz Energy 0.0113292
  Na      0.386000      0.022000      0.000000
   K    -46.250386     -2.581992      0.000000
