    2
 0072.xyz Energy 0.0106321
  Na      0.386000      0.022000      0.000000
   K    -49.308171     -2.752727      0.000000
