    2
 0073.xyz Energy 0.00999886
  Na      0.386000      0.022000      0.000000
   K    -52.455286     -2.928449      0.000000
