    2
 0074.xyz Energy 0.0094218
  Na      0.386000      0.022000      0.000000
   K    -55.691729     -3.109159      0.000000
