    2
 0075.xyz Energy 0.00889431
  Na      0.386000      0.022000      0.000000
   K    -59.017500     -3.294857      0.000000
