    2
 0076.xyz Energy 0.00841078
  Na      0.386000      0.022000      0.000000
   K    -62.432600     -3.485543      0.000000
