    2
 0081.xyz Energy 0.00650409
  Na      0.386000      0.022000      0.000000
   K    -80.848029     -4.513788      0.000000
