    2
 0083.xyz Energy 0.00592156
  Na      0.386000      0.022000      0.000000
   K    -88.839500     -4.960000      0.000000
