    2
 0000.xyz Energy 0.0101107
  Li    -13.732000     -8.070000      0.000000
   K     29.633000     21.235000     -0.000000
