    2
 0001.xyz Energy 0.155628
  Li      0.362000      0.218000      0.000000
   K      3.240700      1.956000      0.000000
