    2
 0004.xyz Energy 0.138444
  Li      0.362000      0.218000      0.000000
   K      3.609216      2.178490      0.000000
