    2
 0005.xyz Energy 0.139114
  Li      0.362000      0.218000      0.000000
   K      3.593194      2.168816      0.000000
