    2
 0007.xyz Energy 0.149978
  Li      0.362000      0.218000      0.000000
   K      3.352857      2.023714      0.000000
