    2
 0008.xyz Energy 0.161701
  Li      0.362000      0.218000      0.000000
   K      3.128543      1.888286      0.000000
