    2
 0009.xyz Energy 0.179977
  Li      0.362000      0.218000      0.000000
   K      2.834798      1.710939      0.000000
