    2
 0010.xyz Energy 0.209098
  Li      0.362000      0.218000      0.000000
   K      2.471622      1.491673      0.000000
