    2
 0016.xyz Energy 0.30204
  Li      0.362000      0.218000      0.000000
   K     -1.165473     -0.704204      0.000000
