    2
 0017.xyz Energy 0.186849
  Li      0.362000      0.218000      0.000000
   K     -2.014663     -1.216898      0.000000
