    2
 0018.xyz Energy 0.136471
  Li      0.362000      0.218000      0.000000
   K     -2.933284     -1.771510      0.000000
