    2
 0019.xyz Energy 0.10542
  Li      0.362000      0.218000      0.000000
   K     -3.921335     -2.368041      0.000000
