    2
 0020.xyz Energy 0.084682
  Li      0.362000      0.218000      0.000000
   K     -4.978816     -3.006490      0.000000
