    2
 0021.xyz Energy 0.0699775
  Li      0.362000      0.218000      0.000000
   K     -6.105729     -3.686857      0.000000
