    2
 0023.xyz Energy 0.0931779
  Li      0.362000      0.218000      0.000000
   K     -4.489143     -2.710852      0.000000
