    2
 0024.xyz Energy 0.077798
  Li      0.362000      0.218000      0.000000
   K     -5.453556     -3.293111      0.000000
