    2
 0025.xyz Energy 0.0662434
  Li      0.362000      0.218000      0.000000
   K     -6.471278     -3.907556      0.000000
