    2
 0027.xyz Energy 0.0501583
  Li      0.362000      0.218000      0.000000
   K     -8.666650     -5.233000      0.000000
