    2
 0028.xyz Energy 0.0443754
  Li      0.362000      0.218000      0.000000
   K     -9.844300     -5.944000      0.000000
