    2
 0031.xyz Energy 0.0322193
  Li      0.362000      0.218000      0.000000
   K    -13.697106     -8.270111      0.000000
