    2
 0032.xyz Energy 0.0293194
  Li      0.362000      0.218000      0.000000
   K    -15.087993     -9.109852      0.000000
