    2
 0034.xyz Energy 0.0246305
  Li      0.362000      0.218000      0.000000
   K    -18.029694    -10.885889      0.000000
