    2
 0036.xyz Energy 0.0210244
  Li      0.362000      0.218000      0.000000
   K    -21.184633    -12.790667      0.000000
