    2
 0037.xyz Energy 0.0195227
  Li      0.362000      0.218000      0.000000
   K    -22.842067    -13.791333      0.000000
