    2
 0038.xyz Energy 0.0181823
  Li      0.362000      0.218000      0.000000
   K    -24.552809    -14.824185      0.000000
