    2
 0040.xyz Energy 0.0158972
  Li      0.362000      0.218000      0.000000
   K    -28.134222    -16.986444      0.000000
