    2
 0041.xyz Energy 0.0149179
  Li      0.362000      0.218000      0.000000
   K    -30.004893    -18.115852      0.000000
