    2
 0042.xyz Energy 0.0140291
  Li      0.362000      0.218000      0.000000
   K    -31.928872    -19.277444      0.000000
