    2
 0045.xyz Energy 0.0118026
  Li      0.362000      0.218000      0.000000
   K    -38.020667    -22.955333      0.000000
