    2
 0046.xyz Energy 0.01118
  Li      0.362000      0.218000      0.000000
   K    -40.157883    -24.245667      0.000000
