    2
 0047.xyz Energy 0.0106066
  Li      0.362000      0.218000      0.000000
   K    -42.348409    -25.568185      0.000000
