    2
 0048.xyz Energy 0.0100772
  Li      0.362000      0.218000      0.000000
   K    -44.592244    -26.922889      0.000000
