    2
 0049.xyz Energy 0.00958733
  Li      0.362000      0.218000      0.000000
   K    -46.889389    -28.309778      0.000000
