    2
 0051.xyz Energy 0.00871088
  Li      0.362000      0.218000      0.000000
   K    -51.643606    -31.180111      0.000000
