    2
 0052.xyz Energy 0.0083179
  Li      0.362000      0.218000      0.000000
   K    -54.100678    -32.663556      0.000000
