    2
 0053.xyz Energy 0.00795139
  Li      0.362000      0.218000      0.000000
   K    -56.611059    -34.179185      0.000000
