    2
 0054.xyz Energy 0.007609
  Li      0.362000      0.218000      0.000000
   K    -59.174750    -35.727000      0.000000
