    2
 0055.xyz Energy 0.00728862
  Li      0.362000      0.218000      0.000000
   K    -61.791750    -37.307000      0.000000
