    2
 0056.xyz Energy 0.0507127
  Li      0.362000      0.218000      0.000000
   K     -8.567845     -5.173347      0.000000
