    2
 0058.xyz Energy 0.0388138
  Li      0.362000      0.218000      0.000000
   K    -11.307684     -6.827510      0.000000
