    2
 0060.xyz Energy 0.0308417
  Li      0.362000      0.218000      0.000000
   K    -14.325245     -8.649347      0.000000
