    2
 0063.xyz Energy 0.022955
  Li      0.362000      0.218000      0.000000
   K    -19.372316    -11.696490      0.000000
