    2
 0065.xyz Energy 0.0193211
  Li      0.362000      0.218000      0.000000
   K    -23.084184    -13.937510      0.000000
