    2
 0070.xyz Energy 0.0133471
  Li      0.362000      0.218000      0.000000
   K    -33.578888    -20.273633      0.000000
