    2
 0071.xyz Energy 0.0124976
  Li      0.362000      0.218000      0.000000
   K    -35.886120    -21.666612      0.000000
