    2
 0076.xyz Energy 0.00927819
  Li      0.362000      0.218000      0.000000
   K    -48.463743    -29.260286      0.000000
