    2
 0078.xyz Energy 0.00833624
  Li      0.362000      0.218000      0.000000
   K    -53.980806    -32.591184      0.000000
