    2
 0080.xyz Energy 0.00753298
  Li      0.362000      0.218000      0.000000
   K    -59.775592    -36.089755      0.000000
