    2
 0081.xyz Energy 0.00717487
  Li      0.362000      0.218000      0.000000
   K    -62.777131    -37.901918      0.000000
