    2
 0083.xyz Energy 0.00653226
  Li      0.362000      0.218000      0.000000
   K    -68.988500    -41.652000      0.000000
